VARIABLES = "X"
 "Y"
 "Z"
 "I"
 "J"
 "K"
 "U"
 "V"
 "W"
 "T"
 "fu"
 "fv"
 "X Pressure Gradient"
 "Y Pressure Gradient"
 "Z Pressure Gradient"
ZONE
DT=(DOUBLE,DOUBLE,DOUBLE,DOUBLE,DOUBLE,DOUBLE,DOUBLE,DOUBLE,DOUBLE,DOUBLE,DOUBLE,DOUBLE,DOUBLE,DOUBLE,DOUBLE)
                    0.5                     0.5                       0        15.5001350058562        15.5001354217529                       0                       0                       0                       0        19.9229259490967                       0                       0        1.11840494337534     -0.0151782747656615       -73.3891205021979 
                    0.5                     0.5      0.0025062656641604        15.5001350058562        15.5001354217529       0.150372940630608      0.0180670118983424     0.00146284449690841    0.000726441785213662         19.366836352831                       0                       0        1.17053668040253     -0.0245928563068841        -70.182224116143 
                    0.5                     0.5      0.0050125313283208        15.5001350058562        15.5001354217529       0.300745881261217      0.0361340237966848     0.00292568899381681     0.00145288357042732        18.8107467565653                       0                       0        1.22266841742972     -0.0340074378481066       -66.9753277300881 
                    0.5                     0.5      0.0075187969924812        15.5001350058562        15.5001354217529       0.451118821891825      0.0542010356950273     0.00438853349072522     0.00217932535564099        18.2546571602996                       0                       0        1.27480015445691     -0.0434220193893292       -63.7684313440332 
                    0.5                     0.5      0.0100250626566416        15.5001350058562        15.5001354217529       0.601491762522433      0.0722663851464475     0.00585115157577654     0.00290625112029139        17.6985751843272                       0                       0        1.32696750580703     -0.0528178440217161       -60.5615932680409 
                    0.5                     0.5       0.012531328320802        15.5001350058562        15.5001354217529       0.751864703153042      0.0903333970447899     0.00731399607268495     0.00363269290550505        17.1424855880615                       0                       0        1.37909924283422     -0.0622324255629387       -57.3546968819861 
                    0.5                     0.5      0.0150375939849624        15.5001350058562        15.5001354217529        0.90223764378365       0.108400408943132     0.00877684056959335     0.00435913469071871        16.5863959917958                       0                       0        1.43123097986141     -0.0716470071041613       -54.1478004959312 
                    0.5                     0.5      0.0175438596491228        15.5001350058562        15.5001354217529        1.02630607862362       0.119010755329684     0.00903267743364448     0.00500725305563508        16.2252487879663                       0                       0        1.46552941771265     -0.0798561616514211       -51.0759913982487 
                    0.5                     0.5      0.0200501253132832        15.5001350058562        15.5001354217529        1.10149479669501         0.1157649319347     0.00704562132334447     0.00550982880397652        16.2263486076816                       0                       0         1.4666895552397     -0.0858253604086315       -48.2552050130716 
                    0.5                     0.5      0.0225563909774436        15.5001350058562        15.5001354217529        1.17668351476639       0.112519108539716     0.00505856521304447     0.00601240455231796        16.2274484273969                       0                       0        1.46784969276675      -0.091794559165842       -45.4344186278946 
                    0.5                     0.5       0.025062656641604        15.5001350058562        15.5001354217529        1.25187223283777       0.109273285144731     0.00307150910274446      0.0065149803006594        16.2285482471122                       0                       0         1.4690098302938     -0.0977637579230524       -42.6136322427175 
                    0.5                     0.5      0.0275689223057644        15.5001350058562        15.5001354217529        1.32706095090916       0.106027461749747     0.00108445299244446     0.00701755604900084        16.2296480668274                       0                       0        1.47016996782084      -0.103732956680263       -39.7928458575405 
                    0.5                     0.5      0.0300751879699248        15.5001350058562        15.5001354217529        1.40224966898054       0.102781638354762   -0.000902603117855548     0.00752013179734228        16.2307478865427                       0                       0        1.47133010534789      -0.109702155437473       -36.9720594723634 
                    0.5                     0.5      0.0325814536340852        15.5001350058562        15.5001354217529        1.47743838705192      0.0995358149597776    -0.00288965922815555     0.00802270754568372         16.231847706258                       0                       0        1.47249024287494      -0.115671354194684       -34.1512730871864 
                    0.5                     0.5      0.0350877192982456        15.5001350058562        15.5001354217529        1.55262710512331      0.0962916290278663    -0.00487611214731139     0.00852601358882284        16.2329451342833                       0                       0        1.47367748427518      -0.121632472921832       -31.3305865236535 
                    0.5                     0.5       0.037593984962406        15.5001350058562        15.5001354217529        1.62781582319469      0.0930458056328818     -0.0068631682576114     0.00902858933716428        16.2340449539985                       0                       0        1.47483762180223      -0.127601671679042       -28.5098001384764 
                    0.5                     0.5      0.0401002506265664        15.5001350058562        15.5001354217529        1.70300454126607      0.0897999822378974     -0.0088502243679114     0.00953116508550572        16.2351447737138                       0                       0        1.47599775932927      -0.133570870436253       -25.6890137532994 
                    0.5                     0.5      0.0426065162907268        15.5001350058562        15.5001354217529        1.77819325933746      0.0865541588429129     -0.0108372804782114      0.0100337408338472        16.2362445934291                       0                       0        1.47715789685632      -0.139540069193463       -22.8682273681224 
                    0.5                     0.5      0.0451127819548872        15.5001350058562        15.5001354217529        1.85338197740884      0.0833083354479284     -0.0128243365885114      0.0105363165821886        16.2373444131444                       0                       0        1.47831803438337      -0.145509267950674       -20.0474409829453 
                    0.5                     0.5      0.0476190476190476        15.5001350058562        15.5001354217529        1.92857069548022       0.080062512052944     -0.0148113926988114        0.01103889233053        16.2384442328597                       0                       0        1.47947817191042      -0.151478466707884       -17.2266545977683 
                    0.5                     0.5       0.050125313283208        15.5001350058562        15.5001354217529        2.00375941376168      0.0769085101800872     -0.0167672182470652      0.0115317868557084        16.2397534566457                       0                       0        1.47833732351082      -0.156922443051782       -14.4857005581743 
                    0.5                     0.5      0.0526315789473684        15.5001350058562        15.5001354217529         2.0789481360346      0.0754991281463353     -0.0181296594027537      0.0118407369895745        16.2450413826749                       0                       0        1.43347746889026      -0.152387131087511       -13.2615705776814 
                    0.5                     0.5      0.0551378446115288        15.5001350058562        15.5001354217529        2.15413685830753      0.0740897461125833     -0.0194921005584422      0.0121496871234407        16.2503293087041                       0                       0         1.3886176142697       -0.14785181912324       -12.0374405971885 
                    0.5                     0.5      0.0576441102756892        15.5001350058562        15.5001354217529        2.22932558058045      0.0726803640788313     -0.0208545417141307      0.0124586372573069        16.2556172347333                       0                       0        1.34375775964914      -0.143316507158969       -10.8133106166956 
                    0.5                     0.5      0.0601503759398496        15.5001350058562        15.5001354217529        2.30451430285337      0.0712709820450794     -0.0222169828698191       0.012767587391173        16.2609051607625                       0                       0        1.29889790502859      -0.138781195194697       -9.58918063620266 
                    0.5                     0.5        0.06265664160401        15.5001350058562        15.5001354217529        2.37970302512629      0.0698616000113274     -0.0235794240255076      0.0130765375250392        16.2661930867918                       0                       0        1.25403805040803      -0.134245883230426       -8.36505065570974 
                    0.5                     0.5      0.0651629072681704        15.5001350058562        15.5001354217529        2.45489174739921      0.0684522179775755     -0.0249418651811961      0.0133854876589053         16.271481012821                       0                       0        1.20917819578747      -0.129710571266155       -7.14092067521683 
                    0.5                     0.5      0.0676691729323308        15.5001350058562        15.5001354217529        2.53008046967214      0.0670425122667832     -0.0263035114211282      0.0136947034087418        16.2767670758143                       0                       0        1.16429026146911      -0.125203464006936       -5.91682684861268 
                    0.5                     0.5      0.0701754385964912        15.5001350058562        15.5001354217529        2.60526919194506      0.0656331302330313     -0.0276659525768167      0.0140036535426079        16.2820550018435                       0                       0        1.11943040684856      -0.120668152042665       -4.69269686811977 
                    0.5                     0.5      0.0726817042606516        15.5001350058562        15.5001354217529        2.68045791421798      0.0642237481992793     -0.0290283937325051      0.0143126036764741        16.2873429278727                       0                       0          1.074570552228      -0.116132840078394       -3.46856688762685 
                    0.5                     0.5       0.075187969924812        15.5001350058562        15.5001354217529         2.7556466364909      0.0628143661655274     -0.0303908348881936      0.0146215538103402         16.292630853902                       0                       0        1.02971069760744      -0.111597528114123       -2.24443690713393 
                    0.5                     0.5      0.0776942355889724        15.5001350058562        15.5001354217529        2.83083535876382      0.0614049841317754     -0.0317532760438821      0.0149305039442064        16.2979187799312                       0                       0       0.984850842986878      -0.107062216149852       -1.02030692664102 
                    0.5                     0.5      0.0802005012531328        15.5001350058562        15.5001354217529        2.90602408103675      0.0599956020980234     -0.0331157171995706      0.0152394540780726        16.3032067059604                       0                       0       0.939990988366319       -0.10252690418558       0.203823053851897 
                    0.5                     0.5      0.0827067669172932        15.5001350058562        15.5001354217529        2.98121280330967      0.0585862200642715      -0.034478158355259      0.0155484042119387        16.3084946319896                       0                       0        0.89513113374576     -0.0979915922213091        1.42795303434481 
                    0.5                     0.5      0.0852130325814536        15.5001350058562        15.5001354217529        3.05640153188602      0.0564668911522659     -0.0350208802818584      0.0157598275932437        16.3140631740702                       0                       0       0.856969201342043     -0.0901793095858754        1.72197820996196 
                    0.5                     0.5       0.087719298245614        15.5001350058562        15.5001354217529        3.13159026256202      0.0541110808418643     -0.0352905559348212      0.0159387650752045        16.3197251886039                       0                       0       0.821038328839714     -0.0812754768210498         1.7061879731177 
                    0.5                     0.5      0.0902255639097744        15.5001350058562        15.5001354217529        3.20677899323802      0.0517552705314627      -0.035560231587784      0.0161177025571652        16.3253872031375                       0                       0       0.785107456337384     -0.0723716440562242        1.69039773627344 
                    0.5                     0.5      0.0927318295739348        15.5001350058562        15.5001354217529        3.28196772391402      0.0493994602210611     -0.0358299072407468       0.016296640039126        16.3310492176712                       0                       0       0.749176583835055     -0.0634678112913986        1.67460749942918 
                    0.5                     0.5      0.0952380952380952        15.5001350058562        15.5001354217529        3.35715645459002      0.0470436499106595     -0.0360995828937095      0.0164755775210867        16.3367112322048                       0                       0       0.713245711332725      -0.054563978526573        1.65881726258492 
                    0.5                     0.5      0.0977443609022556        15.5001350058562        15.5001354217529        3.43234518526603      0.0446878396002578     -0.0363692585466723      0.0166545150030475        16.3423732467385                       0                       0       0.677314838830396     -0.0456601457617474        1.64302702574066 
                    0.5                     0.5       0.100250626566416        15.5001350058562        15.5001354217529        3.50753391594203      0.0423325055632132     -0.0366389537125463       0.016833336975067        16.3480325075325                       0                       0       0.641358491533001     -0.0367856754802756        1.62725518508847 
                    0.5                     0.5       0.102756892230576        15.5001350058562        15.5001354217529        3.58272264661803      0.0399766952528116     -0.0369086293655091      0.0170122744570278        16.3536945220662                       0                       0       0.605427619030671       -0.02788184271545        1.61146494824421 
                    0.5                     0.5       0.105263157894737        15.5001350058562        15.5001354217529        3.65791137729403        0.03762088494241     -0.0371783050184719      0.0171912119389885        16.3593565365998                       0                       0       0.569496746528342     -0.0189780099506244        1.59567471139995 
                    0.5                     0.5       0.107769423558897        15.5001350058562        15.5001354217529        3.73310010797003      0.0352650746320084     -0.0374479806714347      0.0173701494209493        16.3650185511335                       0                       0       0.533565874026012     -0.0100741771857988        1.57988447455569 
                    0.5                     0.5       0.110275689223058        15.5001350058562        15.5001354217529        3.80828883864603      0.0329092643216068     -0.0377176563243974      0.0175490869029101        16.3706805656672                       0                       0       0.497635001523683    -0.00117034442097321        1.56409423771143 
                    0.5                     0.5       0.112781954887218        15.5001350058562        15.5001354217529        3.88347756932204      0.0305534540112052     -0.0379873319773602      0.0177280243848708        16.3763425802008                       0                       0       0.461704129021353     0.00773348834385239        1.54830400086718 
                    0.5                     0.5       0.115288220551378        15.5001350058562        15.5001354217529        3.95866629999804      0.0281976437008036      -0.038257007630323      0.0179069618668316        16.3820045947345                       0                       0       0.425773256519024       0.016637321108678        1.53251376402292 
                    0.5                     0.5       0.117794486215539        15.5001350058562        15.5001354217529        4.03385503067404       0.026177704368646     -0.0384292444997392      0.0179878273964678        16.3864044909247                       0                       0       0.396602858743172      0.0222876700166109        1.50432371731941 
                    0.5                     0.5       0.120300751879699        15.5001350058562        15.5001354217529        4.10904376135004      0.0245678308369825     -0.0384825180905085       0.017948956609956        16.3892634633604                       0                       0       0.375686343142337      0.0239658315413213        1.46099470867732 
                    0.5                     0.5        0.12280701754386        15.5001350058562        15.5001354217529        4.18423249202604      0.0229579573053191     -0.0385357916812778      0.0179100858234442        16.3921224357962                       0                       0       0.354769827541501      0.0256439930660318        1.41766570003524 
                    0.5                     0.5        0.12531328320802        15.5001350058562        15.5001354217529        4.25942122270205      0.0213480837736556     -0.0385890652720472      0.0178712150369324        16.3949814082319                       0                       0       0.333853311940666      0.0273221545907422        1.37433669139316 
                    0.5                     0.5        0.12781954887218        15.5001350058562        15.5001354217529        4.33460995337805      0.0197382102419922     -0.0386423388628165      0.0178323442504205        16.3978403806677                       0                       0       0.312936796339831      0.0290003161154526        1.33100768275107 
                    0.5                     0.5       0.130325814536341        15.5001350058562        15.5001354217529        4.40979868405405      0.0181283367103288     -0.0386956124535858      0.0177934734639087        16.4006993531034                       0                       0       0.292020280738996      0.0306784776401631        1.28767867410899 
                    0.5                     0.5       0.132832080200501        15.5001350058562        15.5001354217529        4.48498741473005      0.0165184631786653     -0.0387488860443551      0.0177546026773969        16.4035583255391                       0                       0        0.27110376513816      0.0323566391648735        1.24434966546691 
                    0.5                     0.5       0.135338345864662        15.5001350058562        15.5001354217529        4.56017614540605       0.014908827933681     -0.0388023589174818      0.0177155023078907        16.4064157866884                       0                       0       0.250185128712515      0.0340128564343694        1.20105192306078 
                    0.5                     0.5       0.137844611528822        15.5001350058562        15.5001354217529        4.63536487608205      0.0132989544020176     -0.0388556325082511      0.0176766315213789        16.4092747591241                       0                       0        0.22926861311168      0.0356910179590798        1.15772291441869 
                    0.5                     0.5       0.140350877192982        15.5001350058562        15.5001354217529        4.71055360675806      0.0116890808703541     -0.0389089060990204      0.0176377607348671        16.4121337315599                       0                       0       0.208352097510844      0.0373691794837903        1.11439390577661 
                    0.5                     0.5       0.142857142857143        15.5001350058562        15.5001354217529        4.78574233743406      0.0100792073386907     -0.0389621796897898      0.0175988899483553        16.4149927039956                       0                       0       0.187435581910009      0.0390473410085007        1.07106489713453 
                    0.5                     0.5       0.145363408521303        15.5001350058562        15.5001354217529        4.86093106811006     0.00846933380702723     -0.0390154532805591      0.0175600191618435        16.4178516764314                       0                       0       0.166519066309174      0.0407255025332112        1.02773588849244 
                    0.5                     0.5       0.147869674185464        15.5001350058562        15.5001354217529        4.93611979878606     0.00685946027536379     -0.0390687268713284      0.0175211483753316        16.4207106488671                       0                       0       0.145602550708338      0.0424036640579216       0.984406879850359 
                    0.5                     0.5       0.150375939849624        15.5001350058562        15.5001354217529        5.01130852693438     0.00540582259416542     -0.0390904589138803      0.0174864248679565        16.4233319166988                       0                       0       0.127573230049966      0.0428235585384885       0.943661000979886 
                    0.5                     0.5       0.152882205513784        15.5001350058562        15.5001354217529        5.08649724080423     0.00483473799805402     -0.0389340174411676      0.0174751287236735        16.4246104265715                       0                       0       0.125853244260213      0.0361356896064555       0.917506838046109 
                    0.5                     0.5       0.155388471177945        15.5001350058562        15.5001354217529        5.16168595467407     0.00426365340194262     -0.0387775759684549      0.0174638325793905        16.4258889364442                       0                       0       0.124133258470459      0.0294478206744224       0.891352675112332 
                    0.5                     0.5       0.157894736842105        15.5001350058562        15.5001354217529        5.23687466854392     0.00369256880583122     -0.0386211344957422      0.0174525364351075        16.4271674463169                       0                       0       0.122413272680706      0.0227599517423893       0.865198512178555 
                    0.5                     0.5       0.160401002506266        15.5001350058562        15.5001354217529        5.31206338241376     0.00312148420971982     -0.0384646930230296      0.0174412402908244        16.4284459561897                       0                       0       0.120693286890952      0.0160720828103563       0.839044349244778 
                    0.5                     0.5       0.162907268170426        15.5001350058562        15.5001354217529        5.38725209628361     0.00255039961360842     -0.0383082515503169      0.0174299441465414        16.4297244660624                       0                       0       0.118973301101198     0.00938421387832319       0.812890186311002 
                    0.5                     0.5       0.165413533834586        15.5001350058562        15.5001354217529        5.46244081015345     0.00197931501749702     -0.0381518100776042      0.0174186480022584        16.4310029759351                       0                       0       0.117253315311445     0.00269634494629013       0.786736023377225 
                    0.5                     0.5       0.167919799498747        15.5001350058562        15.5001354217529         5.5376295240233     0.00140802326444924     -0.0379954842575408      0.0174073341651896        16.4322809100306                       0                       0       0.115545731587648    -0.00401261215988433       0.760615444256802 
                    0.5                     0.5       0.170426065162907        15.5001350058562        15.5001354217529        5.61281823789314    0.000836938668337842     -0.0378390427848282      0.0173960380209065        16.4335594199033                       0                       0       0.113825745797894     -0.0107004810919174       0.734461281323025 
                    0.5                     0.5       0.172932330827068        15.5001350058562        15.5001354217529        5.68800695176298    0.000265854072226441     -0.0376826013121155      0.0173847418766235         16.434837929776                       0                       0       0.112105760008141     -0.0173883500239505       0.708307118389248 
                    0.5                     0.5       0.175438596491228        15.5001350058562        15.5001354217529        5.76319566563283   -0.000305230523884961     -0.0375261598394028      0.0173734457323405        16.4361164396488                       0                       0       0.110385774218387     -0.0240762189559835       0.682152955455471 
                    0.5                     0.5       0.177944862155388        15.5001350058562        15.5001354217529        5.83838437950267   -0.000876315119996362     -0.0373697183666901      0.0173621495880574        16.4373949495215                       0                       0       0.108665788428633     -0.0307640878880166       0.655998792521694 
                    0.5                     0.5       0.180451127819549        15.5001350058562        15.5001354217529        5.91357309337252    -0.00144739971610776     -0.0372132768939774      0.0173508534437744        16.4386734593942                       0                       0        0.10694580263888     -0.0374519568200497       0.629844629587917 
                    0.5                     0.5       0.182957393483709        15.5001350058562        15.5001354217529        5.98876180724236    -0.00201848431221917     -0.0370568354212647      0.0173395572994914        16.4399519692669                       0                       0       0.105225816849126     -0.0441398257520827       0.603690466654141 
                    0.5                     0.5        0.18546365914787        15.5001350058562        15.5001354217529        6.06395052111221    -0.00230431697049846      -0.036612830967207      0.0175169029900831        16.4408896173781                       0                       0        0.11497172727572     -0.0576397072249669       0.598855309799308 
                    0.5                     0.5        0.18796992481203        15.5001350058562        15.5001354217529        6.13913923498205    -0.00254002155779266     -0.0361182923164279      0.0177273992049491        16.4417673649581                       0                       0       0.126732569708767     -0.0723366815232122       0.597766597782604 
                    0.5                     0.5        0.19047619047619        15.5001350058562        15.5001354217529         6.2143279488519    -0.00277572614508685     -0.0356237536656489       0.017937895419815        16.4426451125381                       0                       0       0.138493412141814     -0.0870336558214575         0.5966778857659 
                    0.5                     0.5       0.192982456140351        15.5001350058562        15.5001354217529        6.28951666272174    -0.00301143073238105     -0.0351292150148698      0.0181483916346809        16.4435228601182                       0                       0       0.150254254574861      -0.101730630119703       0.595589173749195 
                    0.5                     0.5       0.195488721804511        15.5001350058562        15.5001354217529        6.36470537659159    -0.00324713531967525     -0.0346346763640908      0.0183588878495469        16.4444006076982                       0                       0       0.162015097007908      -0.116427604417948       0.594500461732491 
                    0.5                     0.5       0.197994987468672        15.5001350058562        15.5001354217529        6.43989409046143    -0.00348283990696944     -0.0341401377133117      0.0185693840644128        16.4452783552782                       0                       0       0.173775939440955      -0.131124578716193       0.593411749715787 
                    0.5                     0.5       0.200501253132832        15.5001350058562        15.5001354217529        6.51508280433128    -0.00371883379746677      -0.033645497028636       0.018780206564168        16.4461565892819                       0                       0       0.185552483780549      -0.145840870309158       0.592347928468763 
                    0.5                     0.5       0.203007518796992        15.5001350058562        15.5001354217529        6.59027151820112    -0.00395453838476097     -0.0331509583778569      0.0189907027790339        16.4470343368619                       0                       0       0.197313326213596      -0.160537844607403       0.591259216452059 