VARIABLES = "X"
 "Y"
 "Z"
 "I"
 "J"
 "K"
 "U"
 "V"
 "W"
 "T"
 "fu"
 "fv"
 "X Pressure Gradient"
 "Y Pressure Gradient"
 "Z Pressure Gradient"
ZONE
DT=(DOUBLE,DOUBLE,DOUBLE,DOUBLE,DOUBLE,DOUBLE,DOUBLE,DOUBLE,DOUBLE,DOUBLE,DOUBLE,DOUBLE,DOUBLE,DOUBLE,DOUBLE)
                      0                     0.5                     0.5                       0        15.5001354217529        15.5001350058562                       0                       0                       0        13.1122899320232                       0                       0        57.2936704214423      -0.764054989516541       -77.4289539276347 
     0.0025062656641604                     0.5                     0.5       0.150372940630608        15.5001354217529        15.5001350058562    0.000220231592530458     0.00648400901330519     -0.0317907827004643        13.3068279042006                       0                       0         56.096986320678       -1.18001702212405       -71.6350072690199 
     0.0050125313283208                     0.5                     0.5       0.300745881261217        15.5001354217529        15.5001350058562    0.000440463185060917      0.0129680180266104     -0.0635815654009285         13.501365876378                       0                       0        54.9003022199136       -1.59597905473156       -65.8410606104052 
     0.0075187969924812                     0.5                     0.5       0.451118821891825        15.5001354217529        15.5001350058562    0.000660694777591375      0.0194520270399156     -0.0953723481013928        13.6959038485555                       0                       0        53.7036181191492       -2.01194108733907       -60.0471139517904 
     0.0100250626566416                     0.5                     0.5       0.601491762522433        15.5001354217529        15.5001350058562     0.00088085476273763      0.0259362943229305      -0.127162547388043        13.8922700023541                       0                       0        52.5017242173185        -2.4278809737027       -54.2531621070605 
      0.012531328320802                     0.5                     0.5       0.751864703153042        15.5001354217529        15.5001350058562     0.00110108635526809      0.0324203033362357      -0.158953330088507        14.0868079745315                       0                       0        51.3050401165541       -2.84384300631021       -48.4592154484457 
     0.0150375939849624                     0.5                     0.5        0.90223764378365        15.5001354217529        15.5001350058562     0.00132131794779855      0.0389043123495409      -0.190744112788971        14.2813459467089                       0                       0        50.1083560157897       -3.25980503891772        -42.665268789831 
     0.0175438596491228                     0.5                     0.5        1.02630607862362        15.5001354217529        15.5001350058562     0.00151081047788337      0.0425614445918434      -0.208628236114507             14.45116663                       0                       0        48.8367706966193       -3.63059719303025       -37.8632267573637 
     0.0200501253132832                     0.5                     0.5        1.10149479669501        15.5001354217529        15.5001350058562     0.00164318288269254      0.0409656008989156       -0.20067064331528        14.5750570042533                       0                       0        47.4260019854302       -3.91745350417809       -34.9043676979371 
     0.0225563909774436                     0.5                     0.5        1.17668351476639        15.5001354217529        15.5001350058562     0.00177555528750172      0.0393697572059878      -0.192713050516053        14.6989473785065                       0                       0        46.0152332742411       -4.20430981532592       -31.9455086385105 
      0.025062656641604                     0.5                     0.5        1.25187223283777        15.5001354217529        15.5001350058562      0.0019079276923109        0.03777391351306      -0.184755457716826        14.8228377527597                       0                       0        44.6044645630521       -4.49116612647376       -28.9866495790839 
     0.0275689223057644                     0.5                     0.5        1.32706095090916        15.5001354217529        15.5001350058562     0.00204030009712008      0.0361780698201322      -0.176797864917599         14.946728127013                       0                       0         43.193695851863        -4.7780224376216       -26.0277905196573 
     0.0300751879699248                     0.5                     0.5        1.40224966898054        15.5001354217529        15.5001350058562     0.00217267250192926      0.0345822261272044      -0.168840272118372        15.0706185012662                       0                       0         41.782927140674       -5.06487874876944       -23.0689314602308 
     0.0325814536340852                     0.5                     0.5        1.47743838705192        15.5001354217529        15.5001350058562     0.00230504490673844      0.0329863824342766      -0.160882679319145        15.1945088755195                       0                       0        40.3721584294849       -5.35173505991727       -20.1100724008042 
     0.0350877192982456                     0.5                     0.5        1.55262710512331        15.5001354217529        15.5001350058562      0.0024373504736313      0.0313902975709603      -0.152925010544393        15.3184132328421                       0                       0        38.9522186196618       -5.63860237553025        -17.151257602643 
      0.037593984962406                     0.5                     0.5        1.62781582319469        15.5001354217529        15.5001350058562     0.00256972287844047      0.0297944538780325      -0.144967417745166        15.4423036070954                       0                       0        37.5414499084728       -5.92545868667808       -14.1923985432164 
     0.0401002506265664                     0.5                     0.5        1.70300454126607        15.5001354217529        15.5001350058562     0.00270209528324965      0.0281986101851047      -0.137009824945939        15.5661939813486                       0                       0        36.1306811972837       -6.21231499782592       -11.2335394837899 
     0.0426065162907268                     0.5                     0.5        1.77819325933746        15.5001354217529        15.5001350058562     0.00283446768805883      0.0266027664921769      -0.129052232146711        15.6900843556018                       0                       0        34.7199124860947       -6.49917130897376       -8.27468042436326 
     0.0451127819548872                     0.5                     0.5        1.85338197740884        15.5001354217529        15.5001350058562     0.00296684009286801      0.0250069227992491      -0.121094639347484        15.8139747298551                       0                       0        33.3091437749056        -6.7860276201216       -5.31582136493667 
     0.0476190476190476                     0.5                     0.5        1.92857069548022        15.5001354217529        15.5001350058562     0.00309921249767719      0.0234110791063213      -0.113137046548257        15.9378651041083                       0                       0        31.8983750637166       -7.07288393126944       -2.35696230551008 
      0.050125313283208                     0.5                     0.5        2.00375941376168        15.5001354217529        15.5001350058562     0.00322305920986776      0.0218733020789677      -0.105472236978208        16.0572496880719                       0                       0        30.4937750974693       -7.33915640006301       0.457303054305998 
     0.0526315789473684                     0.5                     0.5         2.0789481360346        15.5001354217529        15.5001350058562     0.00318491674849782      0.0214387986023448      -0.103370343577976        16.0910237207388                       0                       0        29.2063820186527       -7.21433341646038        0.52427092760002 
     0.0551378446115288                     0.5                     0.5        2.15413685830752        15.5001354217529        15.5001350058562     0.00314677428712788      0.0210042951257219      -0.101268450177743        16.1247977534057                       0                       0        27.9189889398361       -7.08951043285774       0.591238800894042 
     0.0576441102756892                     0.5                     0.5        2.22932558058045        15.5001354217529        15.5001350058562     0.00310863182575794       0.020569791649099     -0.0991665567775102        16.1585717860727                       0                       0        26.6315958610195        -6.9646874492551       0.658206674188064 
     0.0601503759398496                     0.5                     0.5        2.30451430285337        15.5001354217529        15.5001350058562     0.00307048936438801      0.0201352881724762     -0.0970646633772776        16.1923458187396                       0                       0        25.3442027822029       -6.83986446565247       0.725174547482086 
       0.06265664160401                     0.5                     0.5        2.37970302512629        15.5001354217529        15.5001350058562     0.00303234690301807      0.0197007846958533     -0.0949627699770449        16.2261198514066                       0                       0        24.0568097033863       -6.71504148204983       0.792142420776108 
     0.0651629072681704                     0.5                     0.5        2.45489174739921        15.5001354217529        15.5001350058562     0.00299420444164813      0.0192662812192304     -0.0928608765768122        16.2598938840735                       0                       0        22.7694166245697       -6.59021849844719        0.85911029407013 
     0.0676691729323308                     0.5                     0.5        2.53008046967214        15.5001354217529        15.5001350058562      0.0029561468686778      0.0188319435904078     -0.0907585975825846        16.2936692614223                       0                       0        21.4780019069615        -6.4654206850133       0.926020856623318 
     0.0701754385964912                     0.5                     0.5        2.60526919194506        15.5001354217529        15.5001350058562     0.00291800440730786      0.0183974401137849     -0.0886567041823519        16.3274432940893                       0                       0        20.1906088281449       -6.34059770141066        0.99298872991734 
     0.0726817042606516                     0.5                     0.5        2.68045791421798        15.5001354217529        15.5001350058562     0.00287986194593793       0.017962936637162     -0.0865548107821193        16.3612173267562                       0                       0        18.9032157493284       -6.21577471780802        1.05995660321136 
      0.075187969924812                     0.5                     0.5         2.7556466364909        15.5001354217529        15.5001350058562     0.00284171948456799      0.0175284331605391     -0.0844529173818866        16.3949913594231                       0                       0        17.6158226705118       -6.09095173420539        1.12692447650538 
     0.0776942355889724                     0.5                     0.5        2.83083535876382        15.5001354217529        15.5001350058562     0.00280357702319805      0.0170939296839162     -0.0823510239816539        16.4287653920901                       0                       0        16.3284295916952       -5.96612875060275        1.19389234979941 
     0.0802005012531328                     0.5                     0.5        2.90602408103675        15.5001354217529        15.5001350058562     0.00276543456182811      0.0166594262072933     -0.0802491305814213         16.462539424757                       0                       0        15.0410365128786       -5.84130576700012        1.26086022309343 
     0.0827067669172932                     0.5                     0.5        2.98121280330967        15.5001354217529        15.5001350058562     0.00272729210045817      0.0162249227306705     -0.0781472371811886         16.496313457424                       0                       0         13.753643434062       -5.71648278339748        1.32782809638745 
     0.0852130325814536                     0.5                     0.5        3.05640153188602        15.5001354217529        15.5001350058562     0.00258239640573711      0.0165529790404722     -0.0759502782892943        16.5145102338246                       0                       0         12.950177632274       -5.43366397890615        1.34700096700573 
      0.087719298245614                     0.5                     0.5        3.13159026256202        15.5001354217529        15.5001350058562     0.00240194149570085      0.0171350419670757     -0.0737216533374511        16.5275182679997                       0                       0        12.3079067067494       -5.09821719081641        1.35025345059885 
     0.0902255639097744                     0.5                     0.5        3.20677899323802        15.5001354217529        15.5001350058562     0.00222148658566459      0.0177171048936792     -0.0714930283856079        16.5405263021748                       0                       0        11.6656357812248       -4.76277040272668        1.35350593419197 
     0.0927318295739348                     0.5                     0.5        3.28196772391402        15.5001354217529        15.5001350058562     0.00204103167562834      0.0182991678202827     -0.0692644034337647        16.5535343363499                       0                       0        11.0233648557003       -4.42732361463694        1.35675841778509 
     0.0952380952380952                     0.5                     0.5        3.35715645459002        15.5001354217529        15.5001350058562     0.00186057676559208      0.0188812307468862     -0.0670357784819215         16.566542370525                       0                       0        10.3810939301757        -4.0918768265472        1.36001090137821 
     0.0977443609022556                     0.5                     0.5        3.43234518526603        15.5001354217529        15.5001350058562     0.00168012185555582      0.0194632936734897     -0.0648071535300783        16.5795504047001                       0                       0        9.73882300465107       -3.75643003845746        1.36326338497134 
      0.100250626566416                     0.5                     0.5        3.50753391594203        15.5001354217529        15.5001350058562     0.00149983272572307      0.0200456864404886     -0.0625786722353671        16.5925561226336                       0                       0        9.09649988933639       -3.42099270972493        1.36651772577435 
      0.102756892230576                     0.5                     0.5        3.58272264661803        15.5001354217529        15.5001350058562     0.00131937781568681      0.0206277493670921     -0.0603500472835239        16.6055641568087                       0                       0         8.4542289638118       -3.08554592163519        1.36977020936748 
      0.105263157894737                     0.5                     0.5        3.65791137729403        15.5001354217529        15.5001350058562     0.00113892290565056      0.0212098122936956     -0.0581214223316807        16.6185721909839                       0                       0        7.81195803828721       -2.75009913354545         1.3730226929606 
      0.107769423558897                     0.5                     0.5        3.73310010797003        15.5001354217529        15.5001350058562      0.0009584679956143      0.0217918752202992     -0.0558927973798375         16.631580225159                       0                       0        7.16968711276261       -2.41465234545571        1.37627517655372 
      0.110275689223058                     0.5                     0.5        3.80828883864603        15.5001354217529        15.5001350058562    0.000778013085578044      0.0223739381469027     -0.0536641724279943        16.6445882593341                       0                       0        6.52741618723802       -2.07920555736598        1.37952766014684 
      0.112781954887218                     0.5                     0.5        3.88347756932204        15.5001354217529        15.5001350058562    0.000597558175541787      0.0229560010735062     -0.0514355474761511        16.6575962935092                       0                       0        5.88514526171343       -1.74375876927624        1.38278014373996 
      0.115288220551378                     0.5                     0.5        3.95866629999804        15.5001354217529        15.5001350058562     0.00041710326550553      0.0235380640001097     -0.0492069225243079        16.6706043276843                       0                       0        5.24287433618884        -1.4083119811865        1.38603262733309 
      0.117794486215539                     0.5                     0.5        4.03385503067404        15.5001354217529        15.5001350058562    0.000223800190977783      0.0239991757675077     -0.0475168713795177         16.678672048841                       0                       0        4.77988798161073        -1.1521878476104        1.39309440361991 
      0.120300751879699                     0.5                     0.5        4.10904376135004        15.5001354217529        15.5001350058562   1.48107571086349E-005       0.024312617932192     -0.0464843664760519         16.680708128255                       0                       0        4.53579065247265      -0.992908960951771        1.40480695582648 
       0.12280701754386                     0.5                     0.5        4.18423249202604        15.5001354217529        15.5001350058562   -0.000194178676760513      0.0246260600968763     -0.0454518615725861        16.6827442076689                       0                       0        4.29169332333456      -0.833630074293144        1.41651950803305 
       0.12531328320802                     0.5                     0.5        4.25942122270204        15.5001354217529        15.5001350058562   -0.000403168110629661      0.0249395022615606     -0.0444193566691204        16.6847802870828                       0                       0        4.04759599419647      -0.674351187634517        1.42823206023962 
       0.12781954887218                     0.5                     0.5        4.33460995337805        15.5001354217529        15.5001350058562   -0.000612157544498809       0.025252944426245     -0.0433868517656546        16.6868163664968                       0                       0        3.80349866505839       -0.51507230097589         1.4399446124462 
      0.130325814536341                     0.5                     0.5        4.40979868405405        15.5001354217529        15.5001350058562   -0.000821146978367956      0.0255663865909293     -0.0423543468621888        16.6888524459107                       0                       0         3.5594013359203      -0.355793414317262        1.45165716465277 
      0.132832080200501                     0.5                     0.5        4.48498741473005        15.5001354217529        15.5001350058562     -0.0010301364122371      0.0258798287556136      -0.041321841958723        16.6908885253246                       0                       0        3.31530400678222      -0.196514527658634        1.46336971685934 
      0.135338345864662                     0.5                     0.5        4.56017614540605        15.5001354217529        15.5001350058562    -0.00123896397459762       0.026193457900589      -0.040289688362093        16.6929264703495                       0                       0        3.07123101668899     -0.0372845072602131        1.47511187165393 
      0.137844611528822                     0.5                     0.5        4.63536487608205        15.5001354217529        15.5001350058562    -0.00144795340846677      0.0265069000652734     -0.0392571834586272        16.6949625497634                       0                       0        2.82713368755091       0.121994379398414         1.4868244238605 
      0.140350877192982                     0.5                     0.5        4.71055360675806        15.5001354217529        15.5001350058562    -0.00165694284233592      0.0268203422299577     -0.0382246785551614        16.6969986291774                       0                       0        2.58303635841282       0.281273266057042        1.49853697606707 
      0.142857142857143                     0.5                     0.5        4.78574233743406        15.5001354217529        15.5001350058562    -0.00186593227620506       0.027133784394642     -0.0371921736516957        16.6990347085913                       0                       0        2.33893902927474       0.440552152715669        1.51024952827365 
      0.145363408521303                     0.5                     0.5        4.86093106811006        15.5001354217529        15.5001350058562    -0.00207492171007421      0.0274472265593263     -0.0361596687482299        16.7010707880052                       0                       0        2.09484170013665       0.599831039374297        1.52196208048022 
      0.147869674185464                     0.5                     0.5        4.93611979878606        15.5001354217529        15.5001350058562    -0.00228391114394336      0.0277606687240107     -0.0351271638447641        16.7031068674192                       0                       0        1.85074437099857       0.759109926032924        1.53367463268679 
      0.150375939849624                     0.5                     0.5        5.01130852693438        15.5001354217529        15.5001350058562    -0.00248186230538501      0.0280251645258081     -0.0341343398380895        16.7050130564197                       0                       0        1.62559478097308       0.897699399078731        1.54787456061049 
      0.152882205513784                     0.5                     0.5        5.08649724080423        15.5001354217529        15.5001350058562     -0.0026174599074104      0.0280131696025831     -0.0333656673163514        16.7061855137909                       0                       0        1.50747815143308        0.91941745139568        1.57612530405695 
      0.155388471177945                     0.5                     0.5        5.16168595467407        15.5001354217529        15.5001350058562    -0.00275305750943579      0.0280011746793582     -0.0325969947946132        16.7073579711621                       0                       0        1.38936152189308       0.941135503712628         1.6043760475034 
      0.157894736842105                     0.5                     0.5        5.23687466854392        15.5001354217529        15.5001350058562    -0.00288865511146119      0.0279891797561332     -0.0318283222728751        16.7085304285333                       0                       0        1.27124489235308       0.962853556029577        1.63262679094986 
      0.160401002506266                     0.5                     0.5        5.31206338241376        15.5001354217529        15.5001350058562    -0.00302425271348658      0.0279771848329082     -0.0310596497511369        16.7097028859046                       0                       0        1.15312826281308       0.984571608346525        1.66087753439631 
      0.162907268170426                     0.5                     0.5        5.38725209628361        15.5001354217529        15.5001350058562    -0.00315985031551198      0.0279651899096832     -0.0302909772293988        16.7108753432758                       0                       0        1.03501163327308        1.00628966066347        1.68912827784277 
      0.165413533834586                     0.5                     0.5        5.46244081015345        15.5001354217529        15.5001350058562    -0.00329544791753737      0.0279531949864582     -0.0295223047076606         16.712047800647                       0                       0       0.916895003733077        1.02800771298042        1.71737902128922 
      0.167919799498747                     0.5                     0.5         5.5376295240233        15.5001354217529        15.5001350058562    -0.00343091645914242      0.0279412139520625     -0.0287537531098441        16.7132235852175                       0                       0       0.798781476312423        1.04967720185292        1.74566544777978 
      0.170426065162907                     0.5                     0.5        5.61281823789314        15.5001354217529        15.5001350058562    -0.00356651406116782      0.0279292190288375     -0.0279850805881059        16.7143960425887                       0                       0       0.680664846772423        1.07139525416987        1.77391619122623 
      0.172932330827068                     0.5                     0.5        5.68800695176298        15.5001354217529        15.5001350058562    -0.00370211166319321      0.0279172241056126     -0.0272164080663678          16.71556849996                       0                       0       0.562548217232423        1.09311330648682        1.80216693467269 
      0.175438596491228                     0.5                     0.5        5.76319566563283        15.5001354217529        15.5001350058562    -0.00383770926521861      0.0279052291823876     -0.0264477355446296        16.7167409573312                       0                       0       0.444431587692422        1.11483135880377        1.83041767811914 
      0.177944862155388                     0.5                     0.5        5.83838437950267        15.5001354217529        15.5001350058562      -0.003973306867244      0.0278932342591626     -0.0256790630228915        16.7179134147024                       0                       0       0.326314958152422        1.13654941112072         1.8586684215656 
      0.180451127819549                     0.5                     0.5        5.91357309337252        15.5001354217529        15.5001350058562     -0.0041089044692694      0.0278812393359376     -0.0249103905011533        16.7190858720736                       0                       0       0.208198328612422        1.15826746343766        1.88691916501205 
      0.182957393483709                     0.5                     0.5        5.98876180724236        15.5001354217529        15.5001350058562    -0.00424450207129479      0.0278692444127126     -0.0241417179794152        16.7202583294448                       0                       0      0.0900816990724218        1.17998551575461        1.91516990845851 
       0.18546365914787                     0.5                     0.5        6.06395052111221        15.5001354217529        15.5001350058562    -0.00440994291375818      0.0277374190881851      -0.023481700587829        16.7192764477813                       0                       0       0.010426843761152        1.17126479077233        1.93030077887026 
       0.18796992481203                     0.5                     0.5        6.13913923498205        15.5001354217529        15.5001350058562    -0.00458062818711473      0.0275845356530332     -0.0228407774471656        16.7179159784703                       0                       0     -0.0624690231155313        1.15719497964272        1.94312605959243 
       0.19047619047619                     0.5                     0.5         6.2143279488519        15.5001354217529        15.5001350058562    -0.00475131346047129      0.0274316522178814     -0.0221998543065021        16.7165555091593                       0                       0      -0.135364889992215        1.14312516851311        1.95595134031459 
      0.192982456140351                     0.5                     0.5        6.28951666272174        15.5001354217529        15.5001350058562    -0.00492199873382784      0.0272787687827295     -0.0215589311658387        16.7151950398483                       0                       0      -0.208260756868898         1.1290553573835        1.96877662103676 
      0.195488721804511                     0.5                     0.5        6.36470537659159        15.5001354217529        15.5001350058562    -0.00509268400718439      0.0271258853475777     -0.0209180080251752        16.7138345705373                       0                       0      -0.281156623745581        1.11498554625389        1.98160190175893 
      0.197994987468672                     0.5                     0.5        6.43989409046143        15.5001354217529        15.5001350058562    -0.00526336928054094      0.0269730019124258     -0.0202770848845118        16.7124741012263                       0                       0      -0.354052490622264        1.10091573512428         1.9944271824811 
      0.200501253132832                     0.5                     0.5        6.51508280433128        15.5001354217529        15.5001350058562    -0.00543393163517449      0.0268199159401663     -0.0196360538975202        16.7111149124788                       0                       0      -0.426990262579642        1.08682803508397        2.00727393398396 
      0.203007518796992                     0.5                     0.5        6.59027151820112        15.5001354217529        15.5001350058562    -0.00560461690853105      0.0266670325050145     -0.0189951307568568        16.7097544431678                       0                       0      -0.499886129456326        1.07275822395436        2.02009921470613 