VARIABLES = "X"
 "Y"
 "Z"
 "I"
 "J"
 "K"
 "U"
 "V"
 "W"
 "T"
 "fu"
 "fv"
 "X Pressure Gradient"
 "Y Pressure Gradient"
 "Z Pressure Gradient"
ZONE
DT=(DOUBLE,DOUBLE,DOUBLE,DOUBLE,DOUBLE,DOUBLE,DOUBLE,DOUBLE,DOUBLE,DOUBLE,DOUBLE,DOUBLE,DOUBLE,DOUBLE,DOUBLE)
                      0                     0.5                     0.5                       0                    10.5        10.5000002980233                       0                       0                       0       0.999993979930878                       0                       0       -4.52754079386032  -4.50740437772283E-006       0.115157344524321 
     0.0025062656641604                     0.5                     0.5       0.100250625072565                    10.5        10.5000002980233   2.60651622251153E-006  -5.01251329041979E-008    0.000110977440865939       0.987601322971814                       0                       0       -4.49874582923853  -5.12358666428251E-006       0.131325193062845 
     0.0050125313283208                     0.5                     0.5       0.200501250145131                    10.5        10.5000002980233   5.21303244502305E-006  -1.00250265808396E-007    0.000221954881731878       0.975208666012749                       0                       0       -4.46995086461673  -5.73976895084218E-006       0.147493041601369 
     0.0075187969924812                     0.5                     0.5       0.300751875217696                    10.5        10.5000002980233   7.81954866753457E-006  -1.50375398712594E-007    0.000332932322597818       0.962816009053685                       0                       0       -4.44115589999494  -6.35595123740185E-006       0.163660890139894 
     0.0100250626566416                     0.5                     0.5       0.401002500290261                    10.5        10.5000002980233   1.04260648900461E-005  -2.00500531616791E-007    0.000443909763463757       0.950423352094621                       0                       0       -4.41236093537315  -6.97213352396152E-006       0.179828738678418 
      0.012531328320802                     0.5                     0.5       0.501253125362827                    10.5        10.5000002980233   1.30325852848846E-005  -2.50625664521209E-007    0.000554887187044315       0.938030698495324                       0                       0       -4.38356598386499  -7.58831634340865E-006       0.195996591209315 
     0.0150375939849624                     0.5                     0.5       0.601503750435392                    10.5        10.5000002980233   1.56391015073961E-005  -3.00750797425407E-007    0.000665864627910254        0.92563804153626                       0                       0        -4.3547710192432  -8.20449862996832E-006       0.212164439747839 
     0.0175438596491228                     0.5                     0.5       0.701754375507957                    10.5        10.5000002980233   1.82456177299076E-005  -3.50875930329605E-007    0.000776842068776193       0.913245384577196                       0                       0       -4.32597605462141  -8.82068091652799E-006       0.228332288286364 
     0.0200501253132832                     0.5                     0.5       0.802005000580522                    10.5        10.5000002980233   2.08521339524191E-005  -4.01001063233803E-007    0.000887819509642133       0.900852727618132                       0                       0       -4.29718108999961  -9.43686320308767E-006       0.244500136824888 
     0.0225563909774436                     0.5                     0.5       0.902255625653088                    10.5        10.5000002980233   2.34586501749307E-005  -4.51126196138001E-007    0.000998796950508072       0.888460070659068                       0                       0       -4.26838612537782  -1.00530454896473E-005       0.260667985363412 
      0.025062656641604                     0.5                     0.5        1.00125312531614                    10.5        10.5000002980233   2.60231866986682E-005  -4.99371642529015E-007     0.00110735084690937       0.876105637500297                       0                       0       -4.23918888233553  -1.06680840792287E-005       0.276807530066549 
     0.0275689223057644                     0.5                     0.5        1.05137843598511                    10.5        10.5000002980233   2.69505049864423E-005  -4.74308867871399E-007      0.0011213859328127       0.865241941643493                       0                       0       -4.19430268522251  -1.12385182146561E-005       0.291843218458253 
     0.0300751879699248                     0.5                     0.5        1.10150374665408                    10.5        10.5000002980233   2.78778232742164E-005  -4.49246093213784E-007     0.00113542101871604        0.85437824578669                       0                       0       -4.14941648810949  -1.18089523500834E-005       0.306878906849957 
     0.0325814536340852                     0.5                     0.5        1.15162905732305                    10.5        10.5000002980233   2.88051415619905E-005  -4.24183318556169E-007     0.00114945610461938       0.843514549929886                       0                       0       -4.10453029099647  -1.23793864855108E-005        0.32191459524166 
     0.0350877192982456                     0.5                     0.5        1.20175436799202                    10.5        10.5000002980233   2.97324598497646E-005  -3.99120543898553E-007     0.00116349119052271       0.832650854073082                       0                       0       -4.05964409388345  -1.29498206209382E-005       0.336950283633364 
      0.037593984962406                     0.5                     0.5        1.25187967866099                    10.5        10.5000002980233   3.06597781375386E-005  -3.74057769240938E-007     0.00117752627642605       0.821787158216279                       0                       0       -4.01475789677043  -1.35202547563656E-005       0.351985972025067 
     0.0401002506265664                     0.5                     0.5        1.30200498932996                    10.5        10.5000002980233   3.15870964253127E-005  -3.48994994583322E-007     0.00119156136232938       0.810923462359475                       0                       0       -3.96987169965741   -1.4090688891793E-005       0.367021660416771 
     0.0426065162907268                     0.5                     0.5        1.35213029999893                    10.5        10.5000002980233   3.25144147130868E-005  -3.23932219925707E-007     0.00120559644823272       0.800059766502671                       0                       0       -3.92498550254439  -1.46611230272204E-005       0.382057348808475 
     0.0451127819548872                     0.5                     0.5         1.4022556106679                    10.5        10.5000002980233   3.34417330008609E-005  -2.98869445268092E-007     0.00121963153413606       0.789196070645868                       0                       0       -3.88009930543137  -1.52315571626477E-005       0.397093037200178 
     0.0476190476190476                     0.5                     0.5        1.45238092133687                    10.5        10.5000002980233    3.4369051288635E-005  -2.73806670610476E-007     0.00123366662003939       0.778332374789064                       0                       0       -3.83521310831835  -1.58019912980751E-005       0.412128725591882 
      0.050125313283208                     0.5                     0.5        1.50250623200584                    10.5        10.5000002980233   3.52963806032728E-005  -2.48743895952996E-007     0.00124770172322811       0.767468685221898                       0                       0       -3.79032694979051  -1.63724265992095E-005       0.427164424248169 
     0.0526315789473684                     0.5                     0.5        1.55263154267481                    10.5        10.5000002980233   3.62236988910469E-005   -2.2368112129538E-007     0.00126173680913145       0.756604989365094                       0                       0       -3.74544075267749  -1.69428607346368E-005       0.442200112639873 
     0.0551378446115288                     0.5                     0.5        1.60275685334378                    10.5        10.5000002980233    3.7151017178821E-005  -1.98618346637765E-007     0.00127577189503478       0.745741293508291                       0                       0       -3.70055455556447  -1.75132948700642E-005       0.457235801031577 
     0.0576441102756892                     0.5                     0.5        1.65288216401275                    10.5        10.5000002980233   3.80783354665951E-005   -1.7355557198015E-007     0.00128980698093812       0.734877597651487                       0                       0       -3.65566835845145  -1.80837290054916E-005        0.47227148942328 
     0.0601503759398496                     0.5                     0.5        1.70300747468172                    10.5        10.5000002980233   3.90056537543692E-005  -1.48492797322534E-007     0.00130384206684145       0.724013901794683                       0                       0       -3.61078216133843   -1.8654163140919E-005       0.487307177814984 
       0.06265664160401                     0.5                     0.5        1.75313278535068                    10.5        10.5000002980233   3.99329720421433E-005  -1.23430022664919E-007     0.00131787715274479       0.713150205937879                       0                       0       -3.56589596422541  -1.92245972763464E-005       0.502342866206687 
     0.0651629072681704                     0.5                     0.5        1.80325809601965                    10.5        10.5000002980233   4.08602903299173E-005  -9.83672480073034E-008     0.00133191223864813       0.702286510081076                       0                       0       -3.52100976711239  -1.97950314117738E-005       0.517378554598391 
     0.0676691729323308                     0.5                     0.5        1.85338340668862                    10.5        10.5000002980233   4.17876086176914E-005  -7.33044733496879E-008     0.00134594732455146       0.691422814224272                       0                       0       -3.47612356999936  -2.03654655472012E-005       0.532414242990095 
     0.0701754385964912                     0.5                     0.5        1.90350871735759                    10.5        10.5000002980233   4.27149269054655E-005  -4.82416986920725E-008      0.0013599824104548       0.680559118367469                       0                       0       -3.43123737288634  -2.09358996826285E-005       0.547449931381798 
     0.0726817042606516                     0.5                     0.5        1.95363402802656                    10.5        10.5000002980233   4.36422451932396E-005  -2.31789240344571E-008     0.00137401749635813       0.669695422510665                       0                       0       -3.38635117577332  -2.15063338180559E-005       0.562485619773502 
      0.075187969924812                     0.5                     0.5        2.00375933911567                    10.5        10.5000002980233   4.43515218146445E-005   4.17120592916507E-012     0.00138539660942048       0.659132617484872                       0                       0       -3.33991997007586  -2.20550270667481E-005       0.577050156197614 
     0.0776942355889724                     0.5                     0.5        2.05388465538658                    10.5        10.5000002980233   4.23715717899016E-005   4.15626741575494E-012     0.00136401816263482       0.652280862983544                       0                       0       -3.27443333188703  -2.23355781163238E-005       0.585803718752693 
     0.0802005012531328                     0.5                     0.5        2.10400997165749                    10.5        10.5000002980233   4.03916217651588E-005   4.14132890234481E-012     0.00134263971584917       0.645429108482217                       0                       0       -3.20894669369819  -2.26161291658994E-005       0.594557281307772 
     0.0827067669172932                     0.5                     0.5         2.1541352879284                    10.5        10.5000002980233   3.84116717404159E-005   4.12639038893469E-012     0.00132126126906351       0.638577353980889                       0                       0       -3.14346005550936  -2.28966802154751E-005        0.60331084386285 
     0.0852130325814536                     0.5                     0.5        2.20426060419931                    10.5        10.5000002980233    3.6431721715673E-005   4.11145187552456E-012     0.00129988282227786       0.631725599479562                       0                       0       -3.07797341732052  -2.31772312650508E-005       0.612064406417929 
      0.087719298245614                     0.5                     0.5        2.25438592047022                    10.5        10.5000002980233   3.44517716909302E-005   4.09651336211443E-012     0.00127850437549221       0.624873844978234                       0                       0       -3.01248677913168  -2.34577823146264E-005       0.620817968973008 
     0.0902255639097744                     0.5                     0.5        2.30451123674113                    10.5        10.5000002980233   3.24718216661873E-005    4.0815748487043E-012     0.00125712592870655       0.618022090476906                       0                       0       -2.94700014094285  -2.37383333642021E-005       0.629571531528087 
     0.0927318295739348                     0.5                     0.5        2.35463655301204                    10.5        10.5000002980233   3.04918716414444E-005   4.06663633529418E-012      0.0012357474819209       0.611170335975579                       0                       0       -2.88151350275401  -2.40188844137778E-005       0.638325094083166 
     0.0952380952380952                     0.5                     0.5        2.40476186928295                    10.5        10.5000002980233   2.85119216167016E-005   4.05169782188405E-012     0.00121436903513525       0.604318581474251                       0                       0       -2.81602686456518  -2.42994354633534E-005       0.647078656638244 
     0.0977443609022556                     0.5                     0.5        2.45488718555386                    10.5        10.5000002980233   2.65319715919587E-005   4.03675930847392E-012     0.00119299058834959       0.597466826972924                       0                       0       -2.75054022637634  -2.45799865129291E-005       0.655832219193323 
      0.100250626566416                     0.5                     0.5        2.50501250182477                    10.5        10.5000002980233   2.45520314019858E-005    4.0218209726996E-012     0.00117161215735916       0.590615074370895                       0                       0       -2.68505363428576  -2.48605378678287E-005       0.664585790085096 
      0.102756892230576                     0.5                     0.5        2.55513781809568                    10.5        10.5000002980233    2.2572081377243E-005   4.00688245928947E-012      0.0011502337105735       0.583763319869568                       0                       0       -2.61956699609692  -2.51410889174044E-005       0.673339352640175 
      0.105263157894737                     0.5                     0.5        2.60526313436659                    10.5        10.5000002980233   2.05921313525001E-005   3.99194394587935E-012     0.00112885526378785        0.57691156536824                       0                       0       -2.55408035790809    -2.542163996698E-005       0.682092915195254 
      0.107769423558897                     0.5                     0.5         2.6553884506375                    10.5        10.5000002980233   1.86121813277572E-005   3.97700543246922E-012     0.00110747681700219       0.570059810866913                       0                       0       -2.48859371971925  -2.57021910165557E-005       0.690846477750333 
      0.110275689223058                     0.5                     0.5        2.70551376690841                    10.5        10.5000002980233   1.66322313030144E-005   3.96206691905909E-012     0.00108609837021654       0.563208056365585                       0                       0       -2.42310708153042  -2.59827420661314E-005       0.699600040305411 
      0.112781954887218                     0.5                     0.5        2.75563908317932                    10.5        10.5000002980233   1.46522812782715E-005   3.94712840564896E-012     0.00106471992343089       0.556356301864258                       0                       0       -2.35762044334158  -2.62632931157071E-005        0.70835360286049 
      0.115288220551378                     0.5                     0.5        2.80576439945022                    10.5        10.5000002980233   1.26723312535286E-005   3.93218989223884E-012     0.00104334147664523        0.54950454736293                       0                       0       -2.29213380515275  -2.65438441652827E-005       0.717107165415569 
      0.117794486215539                     0.5                     0.5        2.85588971572113                    10.5        10.5000002980233   1.06923812287858E-005   3.91725137882871E-012     0.00102196302985958       0.542652792861603                       0                       0       -2.22664716696391  -2.68243952148584E-005       0.725860727970648 
      0.120300751879699                     0.5                     0.5        2.90601503199204                    10.5        10.5000002980233    8.7124312040429E-006   3.90231286541858E-012     0.00100058458307393       0.535801038360275                       0                       0       -2.16116052877508  -2.71049462644341E-005       0.734614290525727 
       0.12280701754386                     0.5                     0.5        2.95614034826295                    10.5        10.5000002980233   6.73248117930003E-006   3.88737435200845E-012    0.000979206136288272       0.528949283858947                       0                       0       -2.09567389058624  -2.73854973140097E-005       0.743367853080805 
       0.12531328320802                     0.5                     0.5        3.00626566453386                    10.5        10.5000002980233   4.61468654228343E-006  -1.56255195161736E-009    0.000957689845018563       0.522585915971881                       0                       0       -2.03109366245061  -2.76219363236027E-005       0.751257917008113 
       0.12781954887218                     0.5                     0.5        3.05639098080477                    10.5        10.5000002980233   1.53197961935063E-006  -1.40939619897787E-008    0.000935208642360465        0.51964125438464                       0                       0       -1.97285830468745  -2.75495910533167E-005        0.75310349054102 
      0.130325814536341                     0.5                     0.5        3.10651629707568                    10.5        10.5000002980233  -1.55072730358217E-006    -2.662537202794E-008    0.000912727439702367       0.516696592797399                       0                       0       -1.91462294692429  -2.74772457830306E-005       0.754949064073928 
      0.132832080200501                     0.5                     0.5        3.15664161334659                    10.5        10.5000002980233  -4.63343422651497E-006  -3.91567820661013E-008    0.000890246237044269       0.513751931210159                       0                       0       -1.85638758916113  -2.74049005127446E-005       0.756794637606836 
      0.135338345864662                     0.5                     0.5         3.2067669296175                    10.5        10.5000002980233  -7.71614114944777E-006  -5.16881921042626E-008    0.000867765034386172       0.510807269622918                       0                       0       -1.79815223139797  -2.73325552424585E-005       0.758640211139743 
      0.137844611528822                     0.5                     0.5        3.25689224588841                    10.5        10.5000002980233  -1.07988480723806E-005  -6.42196021424239E-008    0.000845283831728074       0.507862608035677                       0                       0       -1.73991687363481  -2.72602099721725E-005       0.760485784672651 
      0.140350877192982                     0.5                     0.5        3.30701756215932                    10.5        10.5000002980233  -1.38815549953134E-005  -7.67510121805852E-008    0.000822802629069976       0.504917946448437                       0                       0       -1.68168151587164  -2.71878647018864E-005       0.762331358205558 
      0.142857142857143                     0.5                     0.5        3.35714287843023                    10.5        10.5000002980233  -1.69642619182462E-005  -8.92824222187466E-008    0.000800321426411878       0.501973284861196                       0                       0       -1.62344615810848  -2.71155194316004E-005       0.764176931738466 
      0.145363408521303                     0.5                     0.5        3.40726819470114                    10.5        10.5000002980233   -2.0046968841179E-005  -1.01813832256908E-007    0.000777840223753781       0.499028623273955                       0                       0       -1.56521080034532  -2.70431741613144E-005       0.766022505271373 
      0.147869674185464                     0.5                     0.5        3.45739351097205                    10.5        10.5000002980233  -2.31296757641118E-005  -1.14345242295069E-007    0.000755359021095683       0.496083961686715                       0                       0       -1.50697544258216  -2.69708288910283E-005       0.767868078804281 
      0.150375939849624                     0.5                     0.5        3.50751882724296                    10.5        10.5000002980233  -2.62123788127424E-005  -1.26876503321668E-007    0.000732877817543534       0.493139299901579                       0                       0       -1.44874010923069  -2.68984827048676E-005       0.769713650988596 
      0.152882205513784                     0.5                     0.5        3.55764414351387                    10.5        10.5000002980233  -2.92950857356752E-005   -1.3940791335983E-007    0.000710396614885437       0.490194638314338                       0                       0       -1.39050475146753  -2.68261374345815E-005       0.771559224521503 
      0.155388471177945                     0.5                     0.5        3.60776945978478                    10.5        10.5000002980233   -3.2377792658608E-005  -1.51939323397991E-007    0.000687915412227339       0.487249976727097                       0                       0       -1.33226939370437  -2.67537921642955E-005       0.773404798054411 
      0.157894736842105                     0.5                     0.5        3.65789477605569                    10.5        10.5000002980233  -3.54604995815408E-005  -1.64470733436152E-007    0.000665434209569241       0.484305315139857                       0                       0       -1.27403403594121  -2.66814468940094E-005       0.775250371587318 
      0.160401002506266                     0.5                     0.5         3.7080200923266                    10.5        10.5000002980233  -3.85432065044736E-005  -1.77002143474314E-007    0.000642953006911143       0.481360653552616                       0                       0       -1.21579867817805  -2.66091016237234E-005       0.777095945120226 
      0.162907268170426                     0.5                     0.5        3.75814540859751                    10.5        10.5000002980233  -4.16259134274064E-005  -1.89533553512475E-007    0.000620471804253046       0.478415991965375                       0                       0       -1.15756332041489  -2.65367563534374E-005       0.778941518653133 
      0.165413533834586                     0.5                     0.5        3.80827072486842                    10.5        10.5000002980233  -4.47086203503392E-005  -2.02064963550636E-007    0.000597990601594948       0.475471330378135                       0                       0       -1.09932796265172  -2.64644110831513E-005       0.780787092186041 
      0.167919799498747                     0.5                     0.5        3.85839604113933                    10.5        10.5000002980233   -4.7791327273272E-005  -2.14596373588798E-007     0.00057550939893685       0.472526668790894                       0                       0       -1.04109260488856  -2.63920658128653E-005       0.782632665718949 
      0.170426065162907                     0.5                     0.5        3.90852135741024                    10.5        10.5000002980233  -5.08740341962048E-005  -2.27127783626959E-007    0.000553028196278752       0.469582007203653                       0                       0      -0.982857247125399  -2.63197205425792E-005       0.784478239251856 
      0.172932330827068                     0.5                     0.5        3.95864667368115                    10.5        10.5000002980233  -5.39567411191376E-005   -2.3965919366512E-007    0.000530546993620655       0.466637345616413                       0                       0      -0.924621889362237  -2.62473752722932E-005       0.786323812784764 
      0.175438596491228                     0.5                     0.5        4.00877198995206                    10.5        10.5000002980233  -5.68727802324048E-005  -2.49997607866197E-007    0.000509421063007326       0.464090340188216                       0                       0      -0.870621209539814  -2.61800168993539E-005       0.787911543745406 
      0.177944862155388                     0.5                     0.5        4.05889730622297                    10.5        10.5000002980233  -5.90031061428963E-005  -2.49997698270449E-007    0.000494684219411246       0.463417984069641                       0                       0       -0.83658384701434  -2.61361679917043E-005       0.788283741162571 
      0.180451127819549                     0.5                     0.5        4.10902262249388                    10.5        10.5000002980233  -6.11334320533877E-005  -2.49997788674702E-007    0.000479947375815166       0.462745627951066                       0                       0      -0.802546484488867  -2.60923190840546E-005       0.788655938579737 
      0.182957393483709                     0.5                     0.5        4.15914793876479                    10.5        10.5000002980233  -6.32637579638792E-005  -2.49997879078954E-007    0.000465210532219087       0.462073271832491                       0                       0      -0.768509121963394   -2.6048470176405E-005       0.789028135996902 
       0.18546365914787                     0.5                     0.5         4.2092732550357                    10.5        10.5000002980233  -6.53940838743706E-005  -2.49997969483207E-007    0.000450473688623007       0.461400915713916                       0                       0      -0.734471759437921  -2.60046212687553E-005       0.789400333414067 
       0.18796992481203                     0.5                     0.5        4.25939857130661                    10.5        10.5000002980233  -6.75244097848621E-005  -2.49998059887459E-007    0.000435736845026927       0.460728559595342                       0                       0      -0.700434396912447  -2.59607723611057E-005       0.789772530831232 
       0.19047619047619                     0.5                     0.5        4.30952388757752                    10.5        10.5000002980233  -6.96547356953536E-005  -2.49998150291712E-007    0.000421000001430848       0.460056203476767                       0                       0      -0.666397034386974   -2.5916923453456E-005       0.790144728248397 
      0.192982456140351                     0.5                     0.5        4.35964920384843                    10.5        10.5000002980233   -7.1785061605845E-005  -2.49998240695964E-007    0.000406263157834768       0.459383847358192                       0                       0      -0.632359671861501  -2.58730745458064E-005       0.790516925665563 
      0.195488721804511                     0.5                     0.5        4.40977452011933                    10.5        10.5000002980233  -7.39153875163365E-005  -2.49998331100217E-007    0.000391526314238689       0.458711491239617                       0                       0      -0.598322309336028  -2.58292256381567E-005       0.790889123082728 
      0.197994987468672                     0.5                     0.5        4.45989983639024                    10.5        10.5000002980233  -7.60457134268279E-005  -2.49998421504469E-007    0.000376789470642609       0.458039135121042                       0                       0      -0.564284946810555  -2.57853767305071E-005       0.791261320499893 
      0.200501253132832                     0.5                     0.5        4.51002515266115                    10.5        10.5000002980233  -7.81760396353425E-005  -2.49998511908713E-007    0.000362052619893967       0.457366779114227                       0                       0       -0.53024758510785  -2.57415266127958E-005       0.791633509478454 
      0.203007518796992                     0.5                     0.5        4.56015046893206                    10.5        10.5000002980233   -8.0306365545834E-005  -2.49998602312965E-007    0.000347315776297887       0.456694422995652                       0                       0      -0.496210222582377  -2.56976777051461E-005        0.79200570689562 