VARIABLES = "X"
 "Y"
 "Z"
 "I"
 "J"
 "K"
 "U"
 "V"
 "W"
 "T"
 "fu"
 "fv"
 "X Pressure Gradient"
 "Y Pressure Gradient"
 "Z Pressure Gradient"
ZONE
DT=(DOUBLE,DOUBLE,DOUBLE,DOUBLE,DOUBLE,DOUBLE,DOUBLE,DOUBLE,DOUBLE,DOUBLE,DOUBLE,DOUBLE,DOUBLE,DOUBLE,DOUBLE)
                    0.5                     0.5                       0        10.5000002980233                    10.5                       0                       0                       0                       0       0.142308747042268                       0                       0      -0.151568317846836   1.21921057971617E-005      0.0982257695283807 
                    0.5                     0.5      0.0025062656641604        10.5000002980233                    10.5       0.100250625072565  -3.53383459953736E-005                       0   1.25313282733898E-006       0.142308747042268                       0                       0      -0.150980401690529    1.2123485357504E-005       0.103284491841475 
                    0.5                     0.5      0.0050125313283208        10.5000002980233                    10.5       0.200501250145131  -7.06766919907472E-005                       0   2.50626565467795E-006       0.142308747042268                       0                       0      -0.150392485534222   1.20548649178462E-005        0.10834321415457 
                    0.5                     0.5      0.0075187969924812        10.5000002980233                    10.5       0.300751875217696   -0.000106015037986121                       0   3.75939848201692E-006       0.142308747042268                       0                       0      -0.149804569377916   1.19862444781884E-005       0.113401936467665 
                    0.5                     0.5      0.0100250626566416        10.5000002980233                    10.5       0.401002500290261   -0.000141353383981494                       0    5.0125313093559E-006       0.142308747042268                       0                       0      -0.149216653221609   1.19176240385307E-005       0.118460658780759 
                    0.5                     0.5       0.012531328320802        10.5000002980233                    10.5       0.501253125362827   -0.000176691737427456                       0    6.2656650307649E-006       0.142308747042268                       0                       0      -0.148628736771523   1.18490035739344E-005       0.123519382891838 
                    0.5                     0.5      0.0150375939849624        10.5000002980233                    10.5       0.601503750435392    -0.00021203008342283                       0   7.51879785810387E-006       0.142308747042268                       0                       0      -0.148040820615217   1.17803831342766E-005       0.128578105204933 
                    0.5                     0.5      0.0175438596491228        10.5000002980233                    10.5       0.701754375507957   -0.000247368429418203                       0   8.77193068544285E-006       0.142308747042268                       0                       0       -0.14745290445891   1.17117626946189E-005       0.133636827518028 
                    0.5                     0.5      0.0200501253132832        10.5000002980233                    10.5       0.802005000580523   -0.000282706775413577                       0   1.00250635127818E-005       0.142308747042268                       0                       0      -0.146864988302603   1.16431422549611E-005       0.138695549831122 
                    0.5                     0.5      0.0225563909774436        10.5000002980233                    10.5       0.902255625653088    -0.00031804512140895                       0   1.12781963401208E-005       0.142308747042268                       0                       0      -0.146277072146296   1.15745218153034E-005       0.143754272144217 
                    0.5                     0.5       0.025062656641604        10.5000002980233                    10.5        1.00125312531614   -0.000352964923465305  -1.86730293327593E-015   1.25369682292751E-005       0.142317891734812                       0                       0      -0.145673464172239   1.15058257912266E-005       0.148872213954249 
                    0.5                     0.5      0.0275689223057644        10.5000002980233                    10.5        1.05137843598511   -0.000371561412360168  -7.65598643536681E-014   1.40156648703313E-005       0.142683681611402                       0                       0       -0.14445787157404   1.14341819568329E-005       0.156299730228664 
                    0.5                     0.5      0.0300751879699248        10.5000002980233                    10.5        1.10150374665408    -0.00039015790125503   -1.5125242577406E-013   1.54943615113875E-005       0.143049471487992                       0                       0      -0.143242278975841   1.13625381224392E-005       0.163727246503078 
                    0.5                     0.5      0.0325814536340852        10.5000002980233                    10.5        1.15162905732305   -0.000408754390149892  -2.25944987194453E-013   1.69730581524437E-005       0.143415261364581                       0                       0      -0.142026686377642   1.12908942880454E-005       0.171154762777493 
                    0.5                     0.5      0.0350877192982456        10.5000002980233                    10.5        1.20175436799202   -0.000427350879044754  -3.00637548614845E-013   1.84517547934999E-005       0.143781051241171                       0                       0      -0.140811093779443   1.12192504536517E-005       0.178582279051908 
                    0.5                     0.5       0.037593984962406        10.5000002980233                    10.5        1.25187967866099   -0.000445947367939616  -3.75330110035237E-013    1.9930451434556E-005       0.144146841117761                       0                       0      -0.139595501181244    1.1147606619258E-005       0.186009795326322 
                    0.5                     0.5      0.0401002506265664        10.5000002980233                    10.5        1.30200498932996   -0.000464543856834478  -4.50022671455629E-013   2.14091480756122E-005       0.144512630994351                       0                       0      -0.138379908583045   1.10759627848642E-005       0.193437311600737 
                    0.5                     0.5      0.0426065162907268        10.5000002980233                    10.5        1.35213029999893    -0.00048314034572934  -5.24715232876021E-013   2.28878447166684E-005        0.14487842087094                       0                       0      -0.137164315984846   1.10043189504705E-005       0.200864827875152 
                    0.5                     0.5      0.0451127819548872        10.5000002980233                    10.5         1.4022556106679   -0.000501736834624203  -5.99407794296413E-013   2.43665413577246E-005        0.14524421074753                       0                       0      -0.135948723386647   1.09326751160768E-005       0.208292344149566 
                    0.5                     0.5      0.0476190476190476        10.5000002980233                    10.5        1.45238092133687   -0.000520333323519065  -6.74100355716806E-013   2.58452379987808E-005        0.14561000062412                       0                       0      -0.134733130788449   1.08610312816831E-005       0.215719860423981 
                    0.5                     0.5       0.050125313283208        10.5000002980233                    10.5        1.50250623200584   -0.000538929813606012  -7.48793094773038E-013   2.73239361299544E-005       0.145975790839856                       0                       0      -0.133517536883539   1.07893876054859E-005       0.223147381317338 
                    0.5                     0.5      0.0526315789473684        10.5000002980233                    10.5        1.55263154267481   -0.000557526302500874   -8.2348565619343E-013   2.88026327710106E-005       0.146341580716446                       0                       0       -0.13230194428534   1.07177437710921E-005       0.230574897591752 
                    0.5                     0.5      0.0551378446115288        10.5000002980233                    10.5        1.60275685334378   -0.000576122791395736  -8.98178217613822E-013   3.02813294120668E-005       0.146707370593036                       0                       0      -0.131086351687141   1.06460999366984E-005       0.238002413866167 
                    0.5                     0.5      0.0576441102756892        10.5000002980233                    10.5        1.65288216401275   -0.000594719280290598  -9.72870779034214E-013    3.1760026053123E-005       0.147073160469625                       0                       0      -0.129870759088942   1.05744561023047E-005       0.245429930140582 
                    0.5                     0.5      0.0601503759398496        10.5000002980233                    10.5        1.70300747468171   -0.000613315769185461  -1.04756334045461E-012   3.32387226941792E-005       0.147438950346215                       0                       0      -0.128655166490743    1.0502812267911E-005       0.252857446414996 
                    0.5                     0.5        0.06265664160401        10.5000002980233                    10.5        1.75313278535068   -0.000631912258080323    -1.122255901875E-012   3.47174193352353E-005       0.147804740222805                       0                       0      -0.127439573892544   1.04311684335172E-005       0.260284962689411 
                    0.5                     0.5      0.0651629072681704        10.5000002980233                    10.5        1.80325809601965   -0.000650508746975185  -1.19694846329539E-012   3.61961159762915E-005       0.148170530099395                       0                       0      -0.126223981294345   1.03595245991235E-005       0.267712478963826 
                    0.5                     0.5      0.0676691729323308        10.5000002980233                    10.5        1.85338340668862   -0.000669105235870047  -1.27164102471578E-012   3.76748126173477E-005       0.148536319975984                       0                       0      -0.125008388696146   1.02878807647298E-005        0.27513999523824 
                    0.5                     0.5      0.0701754385964912        10.5000002980233                    10.5        1.90350871735759   -0.000687701724764909  -1.34633358613618E-012   3.91535092584039E-005       0.148902109852574                       0                       0      -0.123792796097947    1.0216236930336E-005       0.282567511512655 
                    0.5                     0.5      0.0726817042606516        10.5000002980233                    10.5        1.95363402802656   -0.000706298213659772  -1.42102614755657E-012   4.06322058994601E-005       0.149267899729164                       0                       0      -0.122577203499748   1.01445930959423E-005       0.289995027787069 
                    0.5                     0.5       0.075187969924812        10.5000002980233                    10.5        2.00375933911567    -0.00072399998019043  -1.49347796791485E-012   4.21090228810067E-005       0.149681295938132                       0                       0      -0.121277677953494   1.00717066902771E-005       0.297625652509654 
                    0.5                     0.5      0.0776942355889724        10.5000002980233                    10.5        2.05388465538658   -0.000730666648417237  -1.53829350814524E-012   4.35626569979057E-005        0.15068184697713                       0                       0      -0.118942961637706   9.98349497624914E-006       0.307761324363693 
                    0.5                     0.5      0.0802005012531328        10.5000002980233                    10.5        2.10400997165749   -0.000737333316644044  -1.58310904837562E-012   4.50162911148047E-005       0.151682398016128                       0                       0      -0.116608245321918   9.89528326222118E-006       0.317896996217732 
                    0.5                     0.5      0.0827067669172932        10.5000002980233                    10.5         2.1541352879284   -0.000743999984870852    -1.627924588606E-012   4.64699252317037E-005       0.152682949055127                       0                       0       -0.11427352900613   9.80707154819322E-006       0.328032668071771 
                    0.5                     0.5      0.0852130325814536        10.5000002980233                    10.5        2.20426060419931   -0.000750666653097659  -1.67274012883638E-012   4.79235593486027E-005       0.153683500094125                       0                       0      -0.111938812690342   9.71885983416526E-006        0.33816833992581 
                    0.5                     0.5       0.087719298245614        10.5000002980233                    10.5        2.25438592047022   -0.000757333321324466  -1.71755566906677E-012   4.93771934655017E-005       0.154684051133124                       0                       0      -0.109604096374553   9.63064812013731E-006       0.348304011779849 
                    0.5                     0.5      0.0902255639097744        10.5000002980233                    10.5        2.30451123674113   -0.000763999989551273  -1.76237120929715E-012   5.08308275824007E-005       0.155684602172122                       0                       0      -0.107269380058765   9.54243640610935E-006       0.358439683633888 
                    0.5                     0.5      0.0927318295739348        10.5000002980233                    10.5        2.35463655301204    -0.00077066665777808  -1.80718674952753E-012   5.22844616992997E-005        0.15668515321112                       0                       0      -0.104934663742977   9.45422469208139E-006       0.368575355487927 
                    0.5                     0.5      0.0952380952380952        10.5000002980233                    10.5        2.40476186928295   -0.000777333326004887  -1.85200228975792E-012   5.37380958161987E-005       0.157685704250119                       0                       0      -0.102599947427189   9.36601297805344E-006       0.378711027341966 
                    0.5                     0.5      0.0977443609022556        10.5000002980233                    10.5        2.45488718555386   -0.000783999994231695   -1.8968178299883E-012   5.51917299330977E-005       0.158686255289117                       0                       0      -0.100265231111401   9.27780126402548E-006       0.388846699196005 
                    0.5                     0.5       0.100250626566416        10.5000002980233                    10.5        2.50501250182477   -0.000790666658882229  -1.94163354785442E-012   5.66453646460414E-005       0.159686807067813                       0                       0     -0.0979305121765026   9.18959001081261E-006       0.398982375589597 
                    0.5                     0.5       0.102756892230576        10.5000002980233                    10.5        2.55513781809568   -0.000797333327109036  -1.98644908808481E-012   5.80989987629405E-005       0.160687358106811                       0                       0     -0.0955957958607145   9.10137829678466E-006       0.409118047443636 
                    0.5                     0.5       0.105263157894737        10.5000002980233                    10.5        2.60526313436659   -0.000803999995335843  -2.03126462831519E-012   5.95526328798395E-005        0.16168790914581                       0                       0     -0.0932610795449264    9.0131665827567E-006       0.419253719297675 
                    0.5                     0.5       0.107769423558897        10.5000002980233                    10.5         2.6553884506375   -0.000810666663562651  -2.07608016854557E-012   6.10062669967385E-005       0.162688460184808                       0                       0     -0.0909263632291382   8.92495486872875E-006       0.429389391151714 
                    0.5                     0.5       0.110275689223058        10.5000002980233                    10.5        2.70551376690841   -0.000817333331789458  -2.12089570877596E-012   6.24599011136375E-005       0.163689011223807                       0                       0     -0.0885916469133501   8.83674315470079E-006       0.439525063005753 
                    0.5                     0.5       0.112781954887218        10.5000002980233                    10.5        2.75563908317931   -0.000824000000016265  -2.16571124900634E-012   6.39135352305365E-005       0.164689562262805                       0                       0      -0.086256930597562   8.74853144067283E-006       0.449660734859792 
                    0.5                     0.5       0.115288220551378        10.5000002980233                    10.5        2.80576439945022   -0.000830666668243072  -2.21052678923672E-012   6.53671693474355E-005       0.165690113301803                       0                       0     -0.0839222142817739   8.66031972664487E-006       0.459796406713831 
                    0.5                     0.5       0.117794486215539        10.5000002980233                    10.5        2.85588971572113   -0.000837333336469879  -2.25534232946711E-012   6.68208034643345E-005       0.166690664340802                       0                       0     -0.0815874979659858   8.57210801261692E-006        0.46993207856787 
                    0.5                     0.5       0.120300751879699        10.5000002980233                    10.5        2.90601503199204   -0.000844000004696686  -2.30015786969749E-012   6.82744375812335E-005         0.1676912153798                       0                       0     -0.0792527816501977   8.48389629858896E-006       0.480067750421909 
                    0.5                     0.5        0.12280701754386        10.5000002980233                    10.5        2.95614034826295   -0.000850666672923493  -2.34497340992787E-012   6.97280716981325E-005       0.168691766418798                       0                       0     -0.0769180653344096     8.395684584561E-006       0.490203422275948 
                    0.5                     0.5        0.12531328320802        10.5000002980233                    10.5        3.00626566453386   -0.000856321436099487  -2.38978895049792E-012   7.11253148607251E-005       0.169762319074524                       0                       0     -0.0745113885578917    8.2978444168255E-006       0.500154783467489 
                    0.5                     0.5        0.12781954887218        10.5000002980233                    10.5        3.05639098080477   -0.000854892863919789   -2.4346044934456E-012   7.21278213431727E-005       0.171322883047343                       0                       0     -0.0716009885562655   8.13260507313713E-006        0.50881597002154 
                    0.5                     0.5       0.130325814536341        10.5000002980233                    10.5        3.10651629707568   -0.000853464291740091  -2.47942003639328E-012   7.31303278256203E-005       0.172883447020162                       0                       0     -0.0686905885546393   7.96736572944877E-006       0.517477156575592 
                    0.5                     0.5       0.132832080200501        10.5000002980233                    10.5        3.15664161334659   -0.000852035719560393  -2.52423557934096E-012   7.41328343080679E-005        0.17444401099298                       0                       0     -0.0657801885530131    7.8021263857604E-006       0.526138343129643 
                    0.5                     0.5       0.135338345864662        10.5000002980233                    10.5         3.2067669296175   -0.000850607147380694  -2.56905112228864E-012   7.51353407905155E-005       0.176004574965799                       0                       0     -0.0628697885513869   7.63688704207204E-006       0.534799529683695 
                    0.5                     0.5       0.137844611528822        10.5000002980233                    10.5        3.25689224588841   -0.000849178575200996  -2.61386666523632E-012   7.61378472729631E-005       0.177565138938618                       0                       0     -0.0599593885497607   7.47164769838367E-006       0.543460716237746 
                    0.5                     0.5       0.140350877192982        10.5000002980233                    10.5        3.30701756215932   -0.000847750003021298  -2.65868220818401E-012   7.71403537554107E-005       0.179125702911436                       0                       0     -0.0570489885481345   7.30640835469531E-006       0.552121902791798 
                    0.5                     0.5       0.142857142857143        10.5000002980233                    10.5        3.35714287843023   -0.000846321430841599  -2.70349775113169E-012   7.81428602378583E-005       0.180686266884255                       0                       0     -0.0541385885465083   7.14116901100694E-006       0.560783089345849 
                    0.5                     0.5       0.145363408521303        10.5000002980233                    10.5        3.40726819470114   -0.000844892858661901  -2.74831329407937E-012   7.91453667203059E-005       0.182246830857074                       0                       0     -0.0512281885448821   6.97592966731858E-006       0.569444275899901 
                    0.5                     0.5       0.147869674185464        10.5000002980233                    10.5        3.45739351097205   -0.000843464286482203  -2.79312883702705E-012   8.01478732027534E-005       0.183807394829893                       0                       0     -0.0483177885432559   6.81069032363022E-006       0.578105462453952 
                    0.5                     0.5       0.150375939849624        10.5000002980233                    10.5        3.50751882724296   -0.000842035710428189  -2.83794420233902E-012   8.11503796852032E-005       0.185367959733585                       0                       0     -0.0454073852312846   6.64545150170796E-006       0.586766650004744 
                    0.5                     0.5       0.152882205513784        10.5000002980233                    10.5        3.55764414351387   -0.000840607138248491   -2.8827597452867E-012   8.21528861676508E-005       0.186928523706403                       0                       0     -0.0424969852296583    6.4802121580196E-006       0.595427836558796 
                    0.5                     0.5       0.155388471177945        10.5000002980233                    10.5        3.60776945978478   -0.000839178566068792  -2.92757528823439E-012   8.31553926500984E-005       0.188489087679222                       0                       0     -0.0395865852280321   6.31497281433124E-006       0.604089023112848 
                    0.5                     0.5       0.157894736842105        10.5000002980233                    10.5        3.65789477605569   -0.000837749993889094  -2.97239083118207E-012    8.4157899132546E-005       0.190049651652041                       0                       0     -0.0366761852264059   6.14973347064287E-006       0.612750209666899 
                    0.5                     0.5       0.160401002506266        10.5000002980233                    10.5         3.7080200923266   -0.000836321421709396  -3.01720637412975E-012   8.51604056149936E-005       0.191610215624859                       0                       0     -0.0337657852247797   5.98449412695451E-006        0.62141139622095 
                    0.5                     0.5       0.162907268170426        10.5000002980233                    10.5        3.75814540859751   -0.000834892849529697  -3.06202191707743E-012   8.61629120974411E-005       0.193170779597678                       0                       0     -0.0308553852231535   5.81925478326614E-006       0.630072582775002 
                    0.5                     0.5       0.165413533834586        10.5000002980233                    10.5        3.80827072486842   -0.000833464277349999  -3.10683746002511E-012   8.71654185798888E-005       0.194731343570497                       0                       0     -0.0279449852215273   5.65401543957778E-006       0.638733769329054 
                    0.5                     0.5       0.167919799498747        10.5000002980233                    10.5        3.85839604113933   -0.000832035705170301  -3.15165300297279E-012   8.81679250623363E-005       0.196291907543315                       0                       0     -0.0250345852199011   5.48877609588941E-006       0.647394955883105 
                    0.5                     0.5       0.170426065162907        10.5000002980233                    10.5        3.90852135741024   -0.000830607132990602  -3.19646854592048E-012   8.91704315447839E-005       0.197852471516134                       0                       0     -0.0221241852182749   5.32353675220105E-006       0.656056142437157 
                    0.5                     0.5       0.172932330827068        10.5000002980233                    10.5        3.95864667368115   -0.000829178560810904  -3.24128408886816E-012   9.01729380272315E-005       0.199413035488953                       0                       0     -0.0192137852166487   5.15829740851269E-006       0.664717328991208 
                    0.5                     0.5       0.175438596491228        10.5000002980233                    10.5        4.00877198995206   -0.000826956123878127  -3.27825685850927E-012   9.10745665910797E-005       0.201032172210485                       0                       0      -0.016343665233321   4.97173367900377E-006       0.672760217556439 
                    0.5                     0.5       0.177944862155388        10.5000002980233                    10.5        4.05889730622297    -0.00082099121250494  -3.27825685850927E-012   9.15006317412659E-005       0.202927435330264                       0                       0     -0.0136634352008403   4.68464153003631E-006       0.677888296753019 
                    0.5                     0.5       0.180451127819549        10.5000002980233                    10.5        4.10902262249388   -0.000815026301131752  -3.27825685850927E-012   9.19266968914521E-005       0.204822698450043                       0                       0     -0.0109832051683595   4.39754938106886E-006       0.683016375949599 
                    0.5                     0.5       0.182957393483709        10.5000002980233                    10.5        4.15914793876479   -0.000809061389758565  -3.27825685850927E-012   9.23527620416383E-005       0.206717961569822                       0                       0    -0.00830297513587883    4.1104572321014E-006       0.688144455146179 
                    0.5                     0.5        0.18546365914787        10.5000002980233                    10.5         4.2092732550357   -0.000803096478385377  -3.27825685850927E-012   9.27788271918245E-005       0.208613224689601                       0                       0    -0.00562274510339811   3.82336508313395E-006       0.693272534342758 
                    0.5                     0.5        0.18796992481203        10.5000002980233                    10.5        4.25939857130661    -0.00079713156701219  -3.27825685850926E-012   9.32048923420107E-005        0.21050848780938                       0                       0     -0.0029425150709174   3.53627293416649E-006       0.698400613539338 
                    0.5                     0.5        0.19047619047619        10.5000002980233                    10.5        4.30952388757752   -0.000791166655639003  -3.27825685850927E-012   9.36309574921969E-005       0.212403750929159                       0                       0    -0.00026228503843668   3.24918078519904E-006       0.703528692735918 
                    0.5                     0.5       0.192982456140351        10.5000002980233                    10.5        4.35964920384843   -0.000785201744265815  -3.27825685850927E-012   9.40570226423831E-005       0.214299014048938                       0                       0     0.00241794499404404   2.96208863623158E-006       0.708656771932497 
                    0.5                     0.5       0.195488721804511        10.5000002980233                    10.5        4.40977452011933   -0.000779236832892628  -3.27825685850926E-012   9.44830877925692E-005       0.216194277168718                       0                       0     0.00509817502652475   2.67499648726413E-006       0.713784851129077 
                    0.5                     0.5       0.197994987468672        10.5000002980233                    10.5        4.45989983639024   -0.000773271921519441  -3.27825685850927E-012   9.49091529427554E-005       0.218089540288497                       0                       0     0.00777840505900547   2.38790433829667E-006       0.718912930325657 
                    0.5                     0.5       0.200501253132832        10.5000002980233                    10.5        4.51002515266115   -0.000767307006569981  -3.27825685850927E-012    9.5335217794916E-005       0.219984804245424                       0                       0      0.0104586382008514    2.1008128776778E-006       0.724041006193556 
                    0.5                     0.5       0.203007518796992        10.5000002980233                    10.5        4.56015046893206   -0.000761342095196793  -3.27825685850926E-012   9.57612829451022E-005       0.221880067365203                       0                       0      0.0131388682333322   1.81372072871035E-006       0.729169085390135 