VARIABLES = "X"
 "Y"
 "Z"
 "I"
 "J"
 "K"
 "U"
 "V"
 "W"
 "T"
 "fu"
 "fv"
 "X Pressure Gradient"
 "Y Pressure Gradient"
 "Z Pressure Gradient"
ZONE
DT=(DOUBLE,DOUBLE,DOUBLE,DOUBLE,DOUBLE,DOUBLE,DOUBLE,DOUBLE,DOUBLE,DOUBLE,DOUBLE,DOUBLE,DOUBLE,DOUBLE,DOUBLE)
                      0                     0.5                     0.5                       0        10.5000002980233                    10.5                       0                       0                       0                       1                       0                       0       -4.53128504753695  -3.38981711046449E-006       0.115171276032458 
     0.0025062656641604                     0.5                     0.5       0.100250625072565        10.5000002980233                    10.5   2.60651658722117E-006  -5.01253181083167E-008    0.000111077686419015       0.987596892061271                       0                       0       -4.50245757672341  -4.09567033058146E-006       0.131339475625903 
     0.0050125313283208                     0.5                     0.5       0.200501250145131        10.5000002980233                    10.5   5.21303317444235E-006  -1.00250636216633E-007     0.00022215537283803       0.975193784122542                       0                       0       -4.47363010590986  -4.80152355069845E-006       0.147507675219347 
     0.0075187969924812                     0.5                     0.5       0.300751875217696        10.5000002980233                    10.5   7.81954976166352E-006   -1.5037595432495E-007    0.000333233059257045       0.962790676183813                       0                       0       -4.44480263509631  -5.50737677081553E-006       0.163675874812792 
     0.0100250626566416                     0.5                     0.5       0.401002500290261        10.5000002980233                    10.5   1.04260663488847E-005  -2.00501272433267E-007     0.00044431074567606       0.950387568245083                       0                       0       -4.41597516428276   -6.2132299909325E-006       0.179844074406236 
      0.012531328320802                     0.5                     0.5       0.501253125362827        10.5000002980233                    10.5   1.30325829361059E-005  -2.50624802401741E-007    0.000555388432095075       0.937984460306354                       0                       0       -4.38714769346879  -6.91868524032701E-006       0.196012273999126 
     0.0150375939849624                     0.5                     0.5       0.601503750435392        10.5000002980233                    10.5    1.5639099523327E-005  -3.00750120510057E-007     0.00066646611851409       0.925581352367625                       0                       0       -4.35832022265524  -7.62453846044399E-006        0.21218047359257 
     0.0175438596491228                     0.5                     0.5       0.701754375507957        10.5000002980233                    10.5   1.82456161105482E-005  -3.50875438618374E-007    0.000777543804933105       0.913178244428896                       0                       0        -4.3294927518417  -8.33039168056104E-006       0.228348673186015 
     0.0200501253132832                     0.5                     0.5       0.802005000580523        10.5000002980233                    10.5   2.08521326977694E-005  -4.01000756726691E-007     0.00088862149135212       0.900775136490167                       0                       0       -4.30066528102815  -9.03624490067804E-006       0.244516872779459 
     0.0225563909774436                     0.5                     0.5       0.902255625653088        10.5000002980233                    10.5   2.34586492849906E-005  -4.51126074835008E-007    0.000999699177771136       0.888372028551438                       0                       0        -4.2718378102146  -9.74209812079509E-006       0.260685072372904 
      0.025062656641604                     0.5                     0.5        1.00125312531614        10.5000002980233                    10.5   2.60231861779966E-005  -4.99371704713475E-007     0.00110835018710709       0.876007182655361                       0                       0       -4.24260768273985  -1.04471810780835E-005       0.276824923166323 
     0.0275689223057644                     0.5                     0.5        1.05137843598511        10.5000002980233                    10.5   2.69505050128351E-005  -4.74309046592974E-007     0.00112236021308193       0.865134565522366                       0                       0       -4.19767384971672  -1.11222236018708E-005       0.291859164016729 
     0.0300751879699248                     0.5                     0.5        1.10150374665408        10.5000002980233                    10.5   2.78778238476737E-005  -4.49246388472472E-007     0.00113637023905677       0.854261948389371                       0                       0       -4.15274001669358  -1.17972661256582E-005       0.306893404867135 
     0.0325814536340852                     0.5                     0.5        1.15162905732305        10.5000002980233                    10.5   2.88051426825122E-005  -4.24183730351971E-007     0.00115038026503161       0.843389331256377                       0                       0       -4.10780618367045  -1.24723086494456E-005       0.321927645717541 
     0.0350877192982456                     0.5                     0.5        1.20175436799202        10.5000002980233                    10.5   2.97324615173508E-005  -3.99121072231469E-007     0.00116439029100645       0.832516714123381                       0                       0       -4.06287235064732   -1.3147351173233E-005       0.336961886567947 
      0.037593984962406                     0.5                     0.5        1.25187967866099        10.5000002980233                    10.5   3.06597803521893E-005  -3.74058414110968E-007     0.00117840031698129       0.821644096990386                       0                       0       -4.01793851762419  -1.38223936970204E-005       0.351996127418353 
     0.0401002506265664                     0.5                     0.5        1.30200498932996        10.5000002980233                    10.5   3.15870991870278E-005  -3.48995755990466E-007     0.00119241034295613       0.810771479857391                       0                       0       -3.97300468460105  -1.44974362208078E-005       0.367030368268759 
     0.0426065162907268                     0.5                     0.5        1.35213029999893        10.5000002980233                    10.5   3.25144180218664E-005  -3.23933097869964E-007     0.00120642036893097       0.799898862724396                       0                       0       -3.92807085157792  -1.51724787445952E-005       0.382064609119165 
     0.0451127819548872                     0.5                     0.5         1.4022556106679        10.5000002980233                    10.5   3.34417368567049E-005  -2.98870439749463E-007     0.00122043039490581       0.789026245591401                       0                       0       -3.88313701855479  -1.58475212683826E-005       0.397098849969571 
     0.0476190476190476                     0.5                     0.5        1.45238092133687        10.5000002980233                    10.5   3.43690556915435E-005  -2.73807781628961E-007     0.00123444042088065       0.778153628458406                       0                       0       -3.83820318553165  -1.65225637921701E-005       0.412133090819977 
      0.050125313283208                     0.5                     0.5        1.50250623200584        10.5000002980233                    10.5    3.5296374526382E-005   -2.4874273932189E-007     0.00124845044685549       0.767281011324967                       0                       0       -3.79326935250611  -1.71968309915349E-005       0.427167331669433 
     0.0526315789473684                     0.5                     0.5        1.55263154267481        10.5000002980233                    10.5   3.62236933612206E-005  -2.23680081201388E-007     0.00126246047283033       0.756408394191972                       0                       0       -3.74833551948297  -1.78718735153224E-005       0.442201572519839 
     0.0551378446115288                     0.5                     0.5        1.60275685334378        10.5000002980233                    10.5   3.71510121960591E-005  -1.98617423080887E-007     0.00127647049880516       0.745535777058977                       0                       0       -3.70340168645984  -1.85469160391099E-005       0.457235813370245 
     0.0576441102756892                     0.5                     0.5        1.65288216401275        10.5000002980233                    10.5   3.80783310308977E-005  -1.73554764960386E-007        0.00129048052478       0.734663159925982                       0                       0       -3.65846785343671  -1.92219585628973E-005       0.472270054220651 
     0.0601503759398496                     0.5                     0.5        1.70300747468172        10.5000002980233                    10.5   3.90056498657362E-005  -1.48492106839884E-007     0.00130449055075484       0.723790542792987                       0                       0       -3.61353402041357  -1.98970010866846E-005       0.487304295071057 
       0.06265664160401                     0.5                     0.5        1.75313278535068        10.5000002980233                    10.5   3.99329687005747E-005  -1.23429448719382E-007     0.00131850057672968       0.712917925659992                       0                       0       -3.56860018739044  -2.05720436104721E-005       0.502338535921462 
     0.0651629072681704                     0.5                     0.5        1.80325809601965        10.5000002980233                    10.5   4.08602875354133E-005  -9.83667905988805E-008     0.00133251060270452       0.702045308526997                       0                       0       -3.52366635436731  -2.12470861342594E-005       0.517372776771869 
     0.0676691729323308                     0.5                     0.5        1.85338340668862        10.5000002980233                    10.5   4.17876063702518E-005  -7.33041324783793E-008     0.00134652062867936       0.691172691394002                       0                       0       -3.47873252134418  -2.19221286580469E-005       0.532407017622275 
     0.0701754385964912                     0.5                     0.5        1.90350871735759        10.5000002980233                    10.5   4.27149252050904E-005  -4.82414743578769E-008      0.0013605306546542       0.680300074261007                       0                       0       -3.43379868832104  -2.25971711818342E-005        0.54744125847268 
     0.0726817042606516                     0.5                     0.5        1.95363402802656        10.5000002980233                    10.5   4.36422440399289E-005  -2.31788162373752E-008     0.00137454068062904       0.669427457128012                       0                       0       -3.38886485529791  -2.32722137056217E-005       0.562475499323086 
      0.075187969924812                     0.5                     0.5        2.00375933911567        10.5000002980233                    10.5   4.43496415450423E-005   4.17232641250386E-012     0.00138589473354385       0.658856086991691                       0                       0       -3.34238504882698  -2.39178462942188E-005       0.577038465749408 
     0.0776942355889724                     0.5                     0.5        2.05388465538658        10.5000002980233                    10.5   4.23446294919213E-005   4.17232641250386E-012     0.00136449122390922       0.652000160164981                       0                       0       -3.27683790967932  -2.42007501315067E-005       0.585788947984065 
     0.0802005012531328                     0.5                     0.5        2.10400997165749        10.5000002980233                    10.5   4.03396174388003E-005   4.17232641250386E-012     0.00134308771427459        0.64514423333827                       0                       0       -3.21129077053165  -2.44836539687945E-005       0.594539430218721 
     0.0827067669172932                     0.5                     0.5         2.1541352879284        10.5000002980233                    10.5   3.83346053856793E-005   4.17232641250386E-012     0.00132168420463997        0.63828830651156                       0                       0       -3.14574363138399  -2.47665578060824E-005       0.603289912453377 
     0.0852130325814536                     0.5                     0.5        2.20426060419931        10.5000002980233                    10.5   3.63295933325583E-005   4.17232641250386E-012     0.00130028069500534       0.631432379684849                       0                       0       -3.08019649223632  -2.50494616433709E-005       0.612040394688034 
      0.087719298245614                     0.5                     0.5        2.25438592047022        10.5000002980233                    10.5   3.43245812794373E-005   4.17232641208035E-012     0.00127887718537071       0.624576452858139                       0                       0       -3.01464935308866  -2.53323654806586E-005        0.62079087692269 
     0.0902255639097744                     0.5                     0.5        2.30451123674113        10.5000002980233                    10.5   3.23195692263163E-005   4.17232641250386E-012     0.00125747367573608       0.617720526031428                       0                       0       -2.94910221394099  -2.56152693179468E-005       0.629541359157347 
     0.0927318295739348                     0.5                     0.5        2.35463655301204        10.5000002980233                    10.5   3.03145571731953E-005   4.17232641250386E-012     0.00123607016610145       0.610864599204718                       0                       0       -2.88355507479333  -2.58981731552349E-005       0.638291841392003 
     0.0952380952380952                     0.5                     0.5        2.40476186928295        10.5000002980233                    10.5   2.83095451200743E-005   4.17232641250386E-012     0.00121466665646682       0.604008672378007                       0                       0       -2.81800793564566  -2.61810769925229E-005        0.64704232362666 
     0.0977443609022556                     0.5                     0.5        2.45488718555386        10.5000002980233                    10.5   2.63045330669534E-005   4.17232641250386E-012     0.00119326314683219       0.597152745551297                       0                       0         -2.752460796498  -2.64639808298108E-005       0.655792805861316 
      0.100250626566416                     0.5                     0.5        2.50501250182477        10.5000002980233                    10.5   2.42995210138324E-005    3.8743032524833E-012     0.00117185963719757       0.590296818724728                       0                       0       -2.68691365734763  -2.67465134084561E-005       0.664543288095724 
      0.102756892230576                     0.5                     0.5        2.55513781809568        10.5000002980233                    10.5   2.22945089607114E-005    3.8743032524833E-012     0.00115045612756294       0.583440891898018                       0                       0       -2.62136651819997  -2.70294172457441E-005        0.67329377033038 
      0.105263157894737                     0.5                     0.5        2.60526313436659        10.5000002980233                    10.5   2.02894969075904E-005    3.8743032524833E-012     0.00112905261792831       0.576584965071307                       0                       0        -2.5558193790523  -2.73123210830321E-005       0.682044252565037 
      0.107769423558897                     0.5                     0.5         2.6553884506375        10.5000002980233                    10.5   1.82844848544694E-005   3.87430325205979E-012     0.00110764910829368       0.569729038244597                       0                       0       -2.49027223990464  -2.75952249203203E-005       0.690794734799693 
      0.110275689223058                     0.5                     0.5        2.70551376690841        10.5000002980233                    10.5   1.62794728013484E-005   3.87430325269506E-012     0.00108624559865905       0.562873111417886                       0                       0       -2.42472510075697  -2.78781287576079E-005       0.699545217034349 
      0.112781954887218                     0.5                     0.5        2.75563908317931        10.5000002980233                    10.5   1.42744607482274E-005   3.87430325216567E-012     0.00106484208902442       0.556017184591176                       0                       0       -2.35917796160931  -2.81610325948964E-005       0.708295699269006 
      0.115288220551378                     0.5                     0.5        2.80576439945022        10.5000002980233                    10.5   1.22694486951064E-005   3.87430325258918E-012     0.00104343857938979       0.549161257764465                       0                       0       -2.29363082246165  -2.84439364321842E-005       0.717046181503662 
      0.117794486215539                     0.5                     0.5        2.85588971572113        10.5000002980233                    10.5   1.02644366419854E-005   3.87430325205979E-012     0.00102203506975516       0.542305330937755                       0                       0       -2.22808368331398  -2.87268402694722E-005       0.725796663738319 
      0.120300751879699                     0.5                     0.5        2.90601503199204        10.5000002980233                    10.5   8.25942458886442E-006   3.87430325280094E-012     0.00100063156012054       0.535449404111044                       0                       0       -2.16253654416632  -2.90097441067602E-005       0.734547145972975 
       0.12280701754386                     0.5                     0.5        2.95614034826295        10.5000002980233                    10.5   6.25441253574343E-006    3.8743032518745E-012    0.000979228050485907       0.528593477284334                       0                       0       -2.09698940501865  -2.92926479440485E-005       0.743297628207631 
       0.12531328320802                     0.5                     0.5        3.00626566453386        10.5000002980233                    10.5   4.11468862674525E-006  -1.56254093585428E-009    0.000957689829496877       0.522226317350287                       0                       0        -2.0323510152946   -2.9525658038741E-005       0.751184917307012 
       0.12781954887218                     0.5                     0.5        3.05639098080477        10.5000002980233                    10.5   1.03198172660681E-006  -1.40938628487075E-008    0.000935208629027037        0.51928052566489                       0                       0       -1.97407387153588   -2.9409411935265E-005       0.753029854459464 
      0.130325814536341                     0.5                     0.5        3.10651629707568        10.5000002980233                    10.5  -2.05072517353163E-006  -2.66251847615603E-008    0.000912727428557197       0.516334733979492                       0                       0       -1.91579672777715  -2.92931658317892E-005       0.754874791611916 
      0.132832080200501                     0.5                     0.5        3.15664161334659        10.5000002980233                    10.5  -5.13343207367008E-006   -3.9156506674414E-008    0.000890246228087358       0.513388942294095                       0                       0       -1.85751958401842  -2.91769197283132E-005       0.756719728764368 
      0.135338345864662                     0.5                     0.5         3.2067669296175        10.5000002980233                    10.5  -8.21613897380852E-006  -5.16878285872659E-008    0.000867765027617518       0.510443150608697                       0                       0        -1.7992424402597  -2.90606736248374E-005       0.758564665916819 
      0.137844611528822                     0.5                     0.5        3.25689224588841        10.5000002980233                    10.5   -1.1298845873947E-005  -6.42191505001196E-008    0.000845283827147679       0.507497358923299                       0                       0       -1.74096529650097  -2.89444275213616E-005       0.760409603069271 
      0.140350877192982                     0.5                     0.5        3.30701756215932        10.5000002980233                    10.5  -1.43815527740854E-005  -7.67504724129719E-008    0.000822802626677839       0.504551567237902                       0                       0       -1.68268815274224  -2.88281814178855E-005       0.762254540221723 
      0.142857142857143                     0.5                     0.5        3.35714287843023        10.5000002980233                    10.5  -1.74642596742239E-005  -8.92817943258256E-008    0.000800321426207999       0.501605775552504                       0                       0       -1.62441100898352  -2.87119353144097E-005       0.764099477374175 
      0.145363408521303                     0.5                     0.5        3.40726819470114        10.5000002980233                    10.5  -2.05469665743623E-005  -1.01813116238678E-007    0.000777840225738159       0.498659983867107                       0                       0       -1.56613386522479  -2.85956892109337E-005       0.765944414526626 
      0.147869674185464                     0.5                     0.5        3.45739351097205        10.5000002980233                    10.5  -2.36296734745007E-005  -1.14344438151531E-007     0.00075535902526832       0.495714192181709                       0                       0       -1.50785672146606  -2.84794431074578E-005       0.767789351679078 
      0.150375939849624                     0.5                     0.5        3.50751882724296        10.5000002980233                    10.5  -2.67123803746392E-005   -1.2687739919285E-007     0.00073287782479848       0.492768400496311                       0                       0       -1.44957957770663  -2.83635746630627E-005       0.769634288832436 
      0.152882205513784                     0.5                     0.5        3.55764414351387        10.5000002980233                    10.5  -2.97950872747776E-005  -1.39408721105703E-007     0.00071039662432864       0.489822608810914                       0                       0        -1.3913024339479  -2.82473285595869E-005       0.771479225984887 
      0.155388471177945                     0.5                     0.5        3.60776945978478        10.5000002980233                    10.5  -3.28777941749161E-005  -1.51940043018556E-007    0.000687915423858801       0.486876817125516                       0                       0       -1.33302529018917  -2.81310824561111E-005       0.773324163137339 
      0.157894736842105                     0.5                     0.5        3.65789477605569        10.5000002980233                    10.5  -3.59605010750545E-005  -1.64471364931409E-007    0.000665434223388961       0.483931025440119                       0                       0       -1.27474814643045  -2.80148363526351E-005       0.775169100289791 
      0.160401002506266                     0.5                     0.5         3.7080200923266        10.5000002980233                    10.5   -3.9043207975193E-005  -1.77002686844262E-007    0.000642953022919121       0.480985233754721                       0                       0       -1.21647100267172  -2.78985902491592E-005       0.777014037442243 
      0.162907268170426                     0.5                     0.5        3.75814540859751        10.5000002980233                    10.5  -4.21259148753314E-005  -1.89534008757115E-007    0.000620471822449282       0.478039442069323                       0                       0       -1.15819385891299  -2.77823441456833E-005       0.778858974594694 
      0.165413533834586                     0.5                     0.5        3.80827072486842        10.5000002980233                    10.5  -4.52086217754699E-005  -2.02065330669968E-007    0.000597990621979442       0.475093650383926                       0                       0       -1.09991671515427  -2.76660980422074E-005       0.780703911747146 
      0.167919799498747                     0.5                     0.5        3.85839604113933        10.5000002980233                    10.5  -4.82913286756083E-005  -2.14596652582821E-007    0.000575509421509602       0.472147858698528                       0                       0       -1.04163957139554  -2.75498519387313E-005       0.782548848899598 
      0.170426065162907                     0.5                     0.5        3.90852135741024        10.5000002980233                    10.5  -5.13740355757467E-005  -2.27127974495674E-007    0.000553028221039763       0.469202067013131                       0                       0      -0.983362427636814  -2.74336058352557E-005       0.784393786052049 
      0.172932330827068                     0.5                     0.5        3.95864667368115        10.5000002980233                    10.5  -5.44567424758852E-005  -2.39659296408527E-007    0.000530547020569923       0.466256275327733                       0                       0      -0.925085283878087    -2.731735973178E-005       0.786238723204501 
      0.175438596491228                     0.5                     0.5        4.00877198995206        10.5000002980233                    10.5  -5.73727815743361E-005  -2.49997622085477E-007    0.000509421091506605       0.463708291689695                       0                       0      -0.871047382290915  -2.72162267893998E-005       0.787826426122228 
      0.177944862155388                     0.5                     0.5        4.05889730622297        10.5000002980233                    10.5   -5.9503107507622E-005  -2.49997622085477E-007    0.000494684246451687       0.463035673400299                       0                       0       -0.83699431491161  -2.71863410196624E-005       0.788201463349831 
      0.180451127819549                     0.5                     0.5        4.10902262249388        10.5000002980233                    10.5  -6.16334334409078E-005  -2.49997622085477E-007    0.000479947401396769       0.462363055110902                       0                       0      -0.802941247532306  -2.71564552499239E-005       0.788576500577434 
      0.182957393483709                     0.5                     0.5        4.15914793876479        10.5000002980233                    10.5  -6.37637593741936E-005  -2.49997622085477E-007     0.00046521055634185       0.461690436821506                       0                       0      -0.768888180153001   -2.7126569480186E-005       0.788951537805037 
       0.18546365914787                     0.5                     0.5         4.2092732550357        10.5000002980233                    10.5  -6.58940853074794E-005  -2.49997622085477E-007    0.000450473711286932       0.461017818532109                       0                       0      -0.734835112773697  -2.70966837104478E-005        0.78932657503264 
       0.18796992481203                     0.5                     0.5        4.25939857130661        10.5000002980233                    10.5  -6.80244112407652E-005  -2.49997622085477E-007    0.000435736866232014       0.460345200242713                       0                       0      -0.700782045394392  -2.70667979407099E-005       0.789701612260243 
       0.19047619047619                     0.5                     0.5        4.30952388757752        10.5000002980233                    10.5   -7.0154737174051E-005  -2.49997622085477E-007    0.000421000021177096       0.459672581953317                       0                       0      -0.666728978015087  -2.70369121709718E-005       0.790076649487847 
      0.192982456140351                     0.5                     0.5        4.35964920384843        10.5000002980233                    10.5  -7.22850631073368E-005  -2.49997622085477E-007    0.000406263176122177        0.45899996366392                       0                       0      -0.632675910635783  -2.70070264012339E-005       0.790451686715449 
      0.195488721804511                     0.5                     0.5        4.40977452011933        10.5000002980233                    10.5  -7.44153890406226E-005  -2.49997622085477E-007    0.000391526331067259       0.458327345374524                       0                       0      -0.598622843256478  -2.69771406314956E-005       0.790826723943053 
      0.197994987468672                     0.5                     0.5        4.45989983639024        10.5000002980233                    10.5  -7.65457149739085E-005  -2.49997622085477E-007    0.000376789486012341       0.457654727085128                       0                       0      -0.564569775877173  -2.69472548617575E-005       0.791201761170656 
      0.200501253132832                     0.5                     0.5        4.51002515266115        10.5000002980233                    10.5  -7.86760409071943E-005  -2.49999410225523E-007    0.000362052640957422       0.456982108795589                       0                       0      -0.530516708498939  -2.69182001164898E-005       0.791576798399609 
      0.203007518796992                     0.5                     0.5        4.56015046893206        10.5000002980233                    10.5  -8.08063668404801E-005  -2.49999410225523E-007    0.000347315795902504       0.456309490506193                       0                       0      -0.496463641119634  -2.68883143467519E-005       0.791951835627212 