VARIABLES = "X"
 "Y"
 "Z"
 "I"
 "J"
 "K"
 "U"
 "V"
 "W"
 "T"
 "fu"
 "fv"
 "X Pressure Gradient"
 "Y Pressure Gradient"
 "Z Pressure Gradient"
ZONE
DT=(DOUBLE,DOUBLE,DOUBLE,DOUBLE,DOUBLE,DOUBLE,DOUBLE,DOUBLE,DOUBLE,DOUBLE,DOUBLE,DOUBLE,DOUBLE,DOUBLE,DOUBLE)
                    0.5                     0.5                       0                     5.5                     5.5                       0                       0                       0                       0         19.266939163208                       0                       0     -0.0435620509088039     -0.0371712413616478       -17.0307970046997 
                    0.5                     0.5      0.0025062656641604                     5.5                     5.5      0.0501253125362827   6.82832163510689E-005   6.25062855286404E-005     0.00127916037997562        19.1388552070525                       0                       0     -0.0445223877852283     -0.0377973440070624       -16.7859466488833 
                    0.5                     0.5      0.0050125313283208                     5.5                     5.5       0.100250625072565    0.000136566432702138    0.000125012571057281     0.00255832075995125         19.010771250897                       0                       0     -0.0454827246616527     -0.0384234466524769       -16.5410962930669 
                    0.5                     0.5      0.0075187969924812                     5.5                     5.5       0.150375937608848    0.000204849649053207    0.000187518856585921     0.00383748113992687        18.8826872947415                       0                       0     -0.0464430615380771     -0.0390495492978915       -16.2962459372505 
                    0.5                     0.5      0.0100250626566416                     5.5                     5.5       0.200501250145131    0.000273132865404276    0.000250025142114562     0.00511664151990249         18.754603338586                       0                       0     -0.0474033984145015     -0.0396756519433061       -16.0513955814341 
                    0.5                     0.5       0.012531328320802                     5.5                     5.5       0.250626562681413    0.000341416081755344    0.000312531427643202     0.00639580189987812        18.6265193824305                       0                       0     -0.0483637352909259     -0.0403017545887206       -15.8065452256177 
                    0.5                     0.5      0.0150375939849624                     5.5                     5.5       0.300751875217696    0.000409699298106413    0.000375037713171842     0.00767496227985374         18.498435426275                       0                       0     -0.0493240721673503     -0.0409278572341352       -15.5616948698014 
                    0.5                     0.5      0.0175438596491228                     5.5                     5.5       0.350877187753979    0.000477982514457482    0.000437543998700483     0.00895412265982936        18.3703514701195                       0                       0     -0.0502844090437747     -0.0415539598795497        -15.316844513985 
                    0.5                     0.5      0.0200501253132832                     5.5                     5.5       0.401002500290261    0.000546265730808551    0.000500050284229123       0.010233283039805         18.242267513964                       0                       0     -0.0512447459201991     -0.0421800625249643       -15.0719941581686 
                    0.5                     0.5      0.0225563909774436                     5.5                     5.5       0.451127812826544     0.00061454894715962    0.000562556569757763      0.0115124434197806        18.1141835578085                       0                       0     -0.0522050827966235     -0.0428061651703788       -14.8271438023522 
                    0.5                     0.5       0.025062656641604                     5.5                     5.5       0.501253125362827    0.000682832163510688    0.000625062855286404      0.0127916037997562        17.9860996016529                       0                       0     -0.0531654196730479     -0.0434322678157934       -14.5822934465358 
                    0.5                     0.5      0.0275689223057644                     5.5                     5.5       0.551378437899109    0.000751115379861758    0.000687569140815044      0.0140707641797319        17.8580156454974                       0                       0     -0.0541257565494723     -0.0440583704612079       -14.3374430907194 
                    0.5                     0.5      0.0300751879699248                     5.5                     5.5       0.601503750435392    0.000819398596212826    0.000750075426343685      0.0153499245597075        17.7299316893419                       0                       0     -0.0550860934258966     -0.0446844731066225        -14.092592734903 
                    0.5                     0.5      0.0325814536340852                     5.5                     5.5       0.651629062971675    0.000887681812563895    0.000812581711872325      0.0166290849396831        17.6018477331864                       0                       0      -0.056046430302321      -0.045310575752037       -13.8477423790866 
                    0.5                     0.5      0.0350877192982456                     5.5                     5.5       0.701754375507957    0.000955965028914965    0.000875087997400965      0.0179082453196587        17.4737637770309                       0                       0     -0.0570067671787454     -0.0459366783974516       -13.6028920232702 
                    0.5                     0.5       0.037593984962406                     5.5                     5.5        0.75187968804424     0.00102424824526603    0.000937594282929605      0.0191874056996344        17.3456798208754                       0                       0     -0.0579671040551698     -0.0465627810428662       -13.3580416674538 
                    0.5                     0.5      0.0401002506265664                     5.5                     5.5       0.802005000580523      0.0010925314616171     0.00100010056845825        0.02046656607961        17.2175958647199                       0                       0     -0.0589274409315942     -0.0471888836882807       -13.1131913116374 
                    0.5                     0.5      0.0426065162907268                     5.5                     5.5       0.852130313116805     0.00116081467796817     0.00106260685398689      0.0217457264595856        17.0895119085644                       0                       0     -0.0598877778080186     -0.0478149863336953        -12.868340955821 
                    0.5                     0.5      0.0451127819548872                     5.5                     5.5       0.902255625653088     0.00122909789431924     0.00112511313951553      0.0230248868395612        16.9614279524089                       0                       0      -0.060848114684443     -0.0484410889791098       -12.6234906000047 
                    0.5                     0.5      0.0476190476190476                     5.5                     5.5        0.95238093818937     0.00129738111067031     0.00118761942504417      0.0243040472195368        16.8333439962534                       0                       0     -0.0618084515608674     -0.0490671916245244       -12.3786402441883 
                    0.5                     0.5       0.050125313283208                     5.5                     5.5        1.00125312531614     0.00135991310779038     0.00124632341343932      0.0255537359683175        16.7116567581069                       0                       0     -0.0627293140397537     -0.0496536626485095       -12.1353241972946 
                    0.5                     0.5      0.0526315789473684                     5.5                     5.5        1.02631578065063     0.00131317125563264     0.00123278330415953      0.0262434602198632        16.7115079227771                       0                       0     -0.0629001582714384     -0.0494871281526616       -11.9211602023815 
                    0.5                     0.5      0.0551378446115288                     5.5                     5.5        1.05137843598511     0.00126642940347491     0.00121924319487975       0.026933184471409        16.7113590874473                       0                       0     -0.0630710025031231     -0.0493205936568136       -11.7069962074684 
                    0.5                     0.5      0.0576441102756892                     5.5                     5.5         1.0764410913196     0.00121968755131718     0.00120570308559996      0.0276229087229548        16.7112102521175                       0                       0     -0.0632418467348078     -0.0491540591609656       -11.4928322125553 
                    0.5                     0.5      0.0601503759398496                     5.5                     5.5        1.10150374665408     0.00117294569915945     0.00119216297632017      0.0283126329745005        16.7110614167877                       0                       0     -0.0634126909664925     -0.0489875246651177       -11.2786682176422 
                    0.5                     0.5        0.06265664160401                     5.5                     5.5        1.12656640198857     0.00112620384700171     0.00117862286704039      0.0290023572260463        16.7109125814579                       0                       0     -0.0635835351981772     -0.0488209901692697       -11.0645042227291 
                    0.5                     0.5      0.0651629072681704                     5.5                     5.5        1.15162905732305     0.00107946199484398      0.0011650827577606       0.029692081477592        16.7107637461281                       0                       0      -0.063754379429862     -0.0486544556734217        -10.850340227816 
                    0.5                     0.5      0.0676691729323308                     5.5                     5.5        1.17669171265754     0.00103272014268625     0.00115154264848081      0.0303818057291378        16.7106149107983                       0                       0     -0.0639252236615467     -0.0484879211775738       -10.6361762329029 
                    0.5                     0.5      0.0701754385964912                     5.5                     5.5        1.20175436799202    0.000985978290528515     0.00113800253920102      0.0310715299806836        16.7104660754686                       0                       0     -0.0640960678932314     -0.0483213866817258       -10.4220122379897 
                    0.5                     0.5      0.0726817042606516                     5.5                     5.5        1.22681702332651    0.000939236438370781     0.00112446242992124      0.0317612542322293        16.7103172401388                       0                       0     -0.0642669121249161     -0.0481548521858779       -10.2078482430766 
                    0.5                     0.5       0.075187969924812                     5.5                     5.5        1.25187967866099    0.000892494586213049     0.00111092232064145      0.0324509784837751         16.710168404809                       0                       0     -0.0644377563566008     -0.0479883176900299       -9.99368424816353 
                    0.5                     0.5      0.0776942355889724                     5.5                     5.5        1.27694233399548    0.000845752734055316     0.00109738221136166      0.0331407027353209        16.7100195694792                       0                       0     -0.0646086005882855     -0.0478217831941819       -9.77952025325041 
                    0.5                     0.5      0.0802005012531328                     5.5                     5.5        1.30200498932996    0.000799010881897583     0.00108384210208188      0.0338304269868666        16.7098707341494                       0                       0     -0.0647794448199702      -0.047655248698334        -9.5653562583373 
                    0.5                     0.5      0.0827067669172932                     5.5                     5.5        1.32706764466444     0.00075226902973985     0.00107030199280209      0.0345201512384124        16.7097218988196                       0                       0     -0.0649502890516549      -0.047488714202486       -9.35119226342418 
                    0.5                     0.5      0.0852130325814536                     5.5                     5.5        1.35213029999893    0.000705527177582117      0.0010567618835223      0.0352098754899582        16.7095730634898                       0                       0     -0.0651211332833396     -0.0473221797066381       -9.13702826851107 
                    0.5                     0.5       0.087719298245614                     5.5                     5.5        1.37719295533341    0.000658785325424383     0.00104322177424252      0.0358995997415039          16.70942422816                       0                       0     -0.0652919775150243     -0.0471556452107901       -8.92286427359796 
                    0.5                     0.5      0.0902255639097744                     5.5                     5.5         1.4022556106679    0.000612043473266651     0.00102968166496273      0.0365893239930497        16.7092753928303                       0                       0      -0.065462821746709     -0.0469891107149421       -8.70870027868485 
                    0.5                     0.5      0.0927318295739348                     5.5                     5.5        1.42731826600238    0.000565301621108918     0.00101614155568294      0.0372790482445955        16.7091265575005                       0                       0     -0.0656336659783937     -0.0468225762190942       -8.49453628377174 
                    0.5                     0.5      0.0952380952380952                     5.5                     5.5        1.45238092133687    0.000518559768951184     0.00100260144640316      0.0379687724961412        16.7089777221707                       0                       0     -0.0658045102100784     -0.0466560417232462       -8.28037228885862 
                    0.5                     0.5      0.0977443609022556                     5.5                     5.5        1.47744357667135    0.000471817916793452    0.000989061337123371       0.038658496747687        16.7088288868409                       0                       0     -0.0659753544417631     -0.0464895072273983       -8.06620829394551 
                    0.5                     0.5       0.100250626566416                     5.5                     5.5        1.50250623200584    0.000425076064635719    0.000975521227843584      0.0393482209992327        16.7086800515111                       0                       0     -0.0661461986734478     -0.0463229727315503        -7.8520442990324 
                    0.5                     0.5       0.102756892230576                     5.5                     5.5        1.52756888734032    0.000378334212477985    0.000961981118563797      0.0400379452507785        16.7085312161813                       0                       0     -0.0663170429051325     -0.0461564382357023       -7.63788030411929 
                    0.5                     0.5       0.105263157894737                     5.5                     5.5        1.55263154267481    0.000331592360320252     0.00094844100928401      0.0407276695023243        16.7083823808515                       0                       0     -0.0664878871368172     -0.0459899037398544       -7.42371630920617 
                    0.5                     0.5       0.107769423558897                     5.5                     5.5        1.57769419800929     0.00028485050816252    0.000934900900004223        0.04141739375387        16.7082335455217                       0                       0     -0.0666587313685019     -0.0458233692440064       -7.20955231429306 
                    0.5                     0.5       0.110275689223058                     5.5                     5.5        1.60275685334378    0.000238108656004786    0.000921360790724437      0.0421071180054158        16.7080847101919                       0                       0     -0.0668295756001867     -0.0456568347481585       -6.99538831937995 
                    0.5                     0.5       0.112781954887218                     5.5                     5.5        1.62781950867826    0.000191366803847053     0.00090782068144465      0.0427968422569616        16.7079358748622                       0                       0     -0.0670004198318713     -0.0454903002523105       -6.78122432446684 
                    0.5                     0.5       0.115288220551378                     5.5                     5.5        1.65288216401275     0.00014462495168932    0.000894280572164863      0.0434865665085073        16.7077870395324                       0                       0     -0.0671712640635561     -0.0453237657564625       -6.56706032955372 
                    0.5                     0.5       0.117794486215539                     5.5                     5.5        1.67794481934723   9.78830995315874E-005    0.000880740462885076      0.0441762907600531        16.7076382042026                       0                       0     -0.0673421082952408     -0.0451572312606146       -6.35289633464061 
                    0.5                     0.5       0.120300751879699                     5.5                     5.5        1.70300747468171   5.11412473738545E-005    0.000867200353605289      0.0448660150115988        16.7074893688728                       0                       0     -0.0675129525269255     -0.0449906967647666        -6.1387323397275 
                    0.5                     0.5        0.12280701754386                     5.5                     5.5         1.7280701300162   4.39939521612153E-006    0.000853660244325503      0.0455557392631446         16.707340533543                       0                       0     -0.0676837967586102     -0.0448241622689187       -5.92456834481439 
                    0.5                     0.5        0.12531328320802                     5.5                     5.5        1.75313278535068  -4.23424569416116E-005    0.000840120135045716      0.0462454635146904        16.7071916982132                       0                       0     -0.0678546409902949     -0.0446576277730707       -5.71040434990127 
                    0.5                     0.5        0.12781954887218                     5.5                     5.5        1.77819544068517   -8.9084309099345E-005    0.000826580025765929      0.0469351877662361        16.7070428628834                       0                       0     -0.0680254852219796     -0.0444910932772227       -5.49624035498816 
                    0.5                     0.5       0.130325814536341                     5.5                     5.5        1.80325809601965   -0.000135826161257077    0.000813039916486142      0.0476249120177819        16.7068940275536                       0                       0     -0.0681963294536643     -0.0443245587813748       -5.28207636007505 
                    0.5                     0.5       0.132832080200501                     5.5                     5.5        1.82832075135414   -0.000182568013414811    0.000799499807206356      0.0483146362693277        16.7067451922239                       0                       0      -0.068367173685349     -0.0441580242855268       -5.06791236516194 
                    0.5                     0.5       0.135338345864662                     5.5                     5.5        1.85338340668862   -0.000229309865572544    0.000785959697926569      0.0490043605208734        16.7065963568941                       0                       0     -0.0685380179170337     -0.0439914897896789       -4.85374837024882 
                    0.5                     0.5       0.137844611528822                     5.5                     5.5        1.87844606202311   -0.000276051717730277    0.000772419588646782      0.0496940847724192        16.7064475215643                       0                       0     -0.0687088621487184     -0.0438249552938309       -4.63958437533571 
                    0.5                     0.5       0.140350877192982                     5.5                     5.5        1.90350871735759    -0.00032279356988801    0.000758879479366995       0.050383809023965        16.7062986862345                       0                       0     -0.0688797063804031     -0.0436584207979829        -4.4254203804226 
                    0.5                     0.5       0.142857142857143                     5.5                     5.5        1.92857137269208   -0.000369535422045743    0.000745339370087208      0.0510735332755107        16.7061498509047                       0                       0     -0.0690505506120878      -0.043491886302135       -4.21125638550949 
                    0.5                     0.5       0.145363408521303                     5.5                     5.5        1.95363402802656   -0.000416277274203476    0.000731799260807422      0.0517632575270565        16.7060010155749                       0                       0     -0.0692213948437725      -0.043325351806287       -3.99709239059638 
                    0.5                     0.5       0.147869674185464                     5.5                     5.5        1.97869668336105   -0.000463019126361209    0.000718259151527635      0.0524529817786022        16.7058521802451                       0                       0     -0.0693922390754572      -0.043158817310439       -3.78292839568326 
                    0.5                     0.5       0.150375939849624                     5.5                     5.5        2.00375933911567   -0.000508413256908422     0.00070843609039741      0.0530315959718494        16.7057361601126                       0                       0     -0.0694153983295093     -0.0428740759274314        -3.5870380377711 
                    0.5                     0.5       0.152882205513784                     5.5                     5.5        2.02882199725113   -0.000546170155874398    0.000719676695008846      0.0529805747570066        16.7058060962333                       0                       0     -0.0686016604332555     -0.0419194830226494         -3.494700221065 
                    0.5                     0.5       0.155388471177945                     5.5                     5.5        2.05388465538658   -0.000583927054840374    0.000730917299620282      0.0529295535421639         16.705876032354                       0                       0     -0.0677879225370017     -0.0409648901178674       -3.40236240435891 
                    0.5                     0.5       0.157894736842105                     5.5                     5.5        2.07894731352203   -0.000621683953806351    0.000742157904231718      0.0528785323273212        16.7059459684747                       0                       0     -0.0669741846407479     -0.0400102972130854       -3.31002458765281 
                    0.5                     0.5       0.160401002506266                     5.5                     5.5        2.10400997165749   -0.000659440852772327    0.000753398508843154      0.0528275111124785        16.7060159045954                       0                       0     -0.0661604467444941     -0.0390557043083034       -3.21768677094671 
                    0.5                     0.5       0.162907268170426                     5.5                     5.5        2.12907262979294   -0.000697197751738304     0.00076463911345459      0.0527764898976358        16.7060858407161                       0                       0     -0.0653467088482403     -0.0381011114035213       -3.12534895424062 
                    0.5                     0.5       0.165413533834586                     5.5                     5.5         2.1541352879284    -0.00073495465070428    0.000775879718066026      0.0527254686827931        16.7061557768369                       0                       0     -0.0645329709519865     -0.0371465184987393       -3.03301113753452 
                    0.5                     0.5       0.167919799498747                     5.5                     5.5        2.17919794606385   -0.000772711549670256    0.000787120322677462      0.0526744474679503        16.7062257129576                       0                       0     -0.0637192330557327     -0.0361919255939573       -2.94067332082842 
                    0.5                     0.5       0.170426065162907                     5.5                     5.5        2.20426060419931   -0.000810468448636233    0.000798360927288898      0.0526234262531076        16.7062956490783                       0                       0     -0.0629054951594789     -0.0352373326891753       -2.84833550412233 
                    0.5                     0.5       0.172932330827068                     5.5                     5.5        2.22932326233476   -0.000848225347602209    0.000809601531900334      0.0525724050382649         16.706365585199                       0                       0     -0.0620917572632251     -0.0342827397843933       -2.75599768741623 
                    0.5                     0.5       0.175438596491228                     5.5                     5.5        2.25438592047022   -0.000885982246568186     0.00082084213651177      0.0525213838234222        16.7064355213197                       0                       0     -0.0612780193669713     -0.0333281468796112       -2.66365987071014 
                    0.5                     0.5       0.177944862155388                     5.5                     5.5        2.27944857860567   -0.000923739145534162    0.000832082741123206      0.0524703626085795        16.7065054574404                       0                       0     -0.0604642814707175     -0.0323735539748292       -2.57132205400404 
                    0.5                     0.5       0.180451127819549                     5.5                     5.5        2.30451123674113   -0.000961496044500138    0.000843323345734641      0.0524193413937368        16.7065753935611                       0                       0     -0.0596505435744637     -0.0314189610700472       -2.47898423729794 
                    0.5                     0.5       0.182957393483709                     5.5                     5.5        2.32957389487658   -0.000999252943466115    0.000854563950346078       0.052368320178894        16.7066453296818                       0                       0     -0.0588368056782099     -0.0304643681652652       -2.38664642059185 
                    0.5                     0.5        0.18546365914787                     5.5                     5.5        2.35463655301204    -0.00103700984243209    0.000865804554957514      0.0523172989640513        16.7067152658025                       0                       0     -0.0580230677819561     -0.0295097752604831       -2.29430860388575 
                    0.5                     0.5        0.18796992481203                     5.5                     5.5        2.37969921114749    -0.00107476674139807     0.00087704515956895      0.0522662777492086        16.7067852019232                       0                       0     -0.0572093298857023     -0.0285551823557011       -2.20197078717965 
                    0.5                     0.5        0.19047619047619                     5.5                     5.5        2.40476186928295    -0.00111252364036404    0.000888285764180386      0.0522152565343659        16.7068551380439                       0                       0     -0.0563955919894485     -0.0276005894509191       -2.10963297047356 
                    0.5                     0.5       0.192982456140351                     5.5                     5.5         2.4298245274184    -0.00115028053933002    0.000899526368791822      0.0521642353195232        16.7069250741646                       0                       0     -0.0555818540931947     -0.0266459965461371       -2.01729515376746 
                    0.5                     0.5       0.195488721804511                     5.5                     5.5        2.45488718555386      -0.001188037438296    0.000910766973403257      0.0521132141046805        16.7069950102853                       0                       0     -0.0547681161969409     -0.0256914036413551       -1.92495733706136 
                    0.5                     0.5       0.197994987468672                     5.5                     5.5        2.47994984368931    -0.00122579433726197    0.000922007578014693      0.0520621928898378         16.707064946406                       0                       0      -0.053954378300687      -0.024736810736573       -1.83261952035527 
                    0.5                     0.5       0.200501253132832                     5.5                     5.5        2.50501250182477    -0.00126355123622795    0.000933248182626129       0.052011171674995        16.7071348825267                       0                       0     -0.0531406404044332      -0.023782217831791       -1.74028170364917 
                    0.5                     0.5       0.203007518796992                     5.5                     5.5        2.53007515996022    -0.00130130813519393    0.000944488787237565      0.0519601504601523        16.7072048186474                       0                       0     -0.0523269025081795      -0.022827624927009       -1.64794388694307 