VARIABLES = "X"
 "Y"
 "Z"
 "I"
 "J"
 "K"
 "U"
 "V"
 "W"
 "T"
 "fu"
 "fv"
 "X Pressure Gradient"
 "Y Pressure Gradient"
 "Z Pressure Gradient"
ZONE
DT=(DOUBLE,DOUBLE,DOUBLE,DOUBLE,DOUBLE,DOUBLE,DOUBLE,DOUBLE,DOUBLE,DOUBLE,DOUBLE,DOUBLE,DOUBLE,DOUBLE,DOUBLE)
                      0                     0.5                     0.5                       0                     5.5                     5.5                       0                       0                       0         13.519567489624                       0                       0        26.1003227233887       0.322613105177879       -28.8531198501587 
     0.0025062656641604                     0.5                     0.5      0.0501253125362827                     5.5                     5.5    0.000132130320434806    -0.00128632824921201     0.00280709274803972        13.6877598319171                       0                       0         25.721934637292       0.327455976518312       -28.1441137495978 
     0.0050125313283208                     0.5                     0.5       0.100250625072565                     5.5                     5.5    0.000264260640869613    -0.00257265649842402     0.00561418549607944        13.8559521742103                       0                       0        25.3435465511954       0.332298847858746       -27.4351076490369 
     0.0075187969924812                     0.5                     0.5       0.150375937608848                     5.5                     5.5    0.000396390961304419    -0.00385898474763603     0.00842127824411916        14.0241445165034                       0                       0        24.9651584650987       0.337141719199179        -26.726101548476 
     0.0100250626566416                     0.5                     0.5       0.200501250145131                     5.5                     5.5    0.000528521281739226    -0.00514531299684804      0.0112283709921589        14.1923368587965                       0                       0        24.5867703790021       0.341984590539612       -26.0170954479152 
      0.012531328320802                     0.5                     0.5       0.250626562681413                     5.5                     5.5    0.000660651602174032    -0.00643164124606005      0.0140354637401986        14.3605292010896                       0                       0        24.2083822929054       0.346827461880045       -25.3080893473543 
     0.0150375939849624                     0.5                     0.5       0.300751875217696                     5.5                     5.5    0.000792781922608839    -0.00771796949527206      0.0168425564882383        14.5287215433827                       0                       0        23.8299942068088       0.351670333220478       -24.5990832467934 
     0.0175438596491228                     0.5                     0.5       0.350877187753979                     5.5                     5.5    0.000924912243043645    -0.00900429774448407      0.0196496492362781        14.6969138856758                       0                       0        23.4516061207121       0.356513204560911       -23.8900771462325 
     0.0200501253132832                     0.5                     0.5       0.401002500290261                     5.5                     5.5     0.00105704256347845     -0.0102906259936961      0.0224567419843178        14.8651062279689                       0                       0        23.0732180346154       0.361356075901344       -23.1810710456716 
     0.0225563909774436                     0.5                     0.5       0.451127812826544                     5.5                     5.5     0.00118917288391326     -0.0115769542429081      0.0252638347323575        15.0332985702621                       0                       0        22.6948299485188       0.366198947241777       -22.4720649451107 
      0.025062656641604                     0.5                     0.5       0.501253125362827                     5.5                     5.5     0.00132130320434806     -0.0128632824921201      0.0280709274803972        15.2014909125552                       0                       0        22.3164418624221        0.37104181858221       -21.7630588445499 
     0.0275689223057644                     0.5                     0.5       0.551378437899109                     5.5                     5.5     0.00145343352478287     -0.0141496107413321      0.0308780202284369        15.3696832548483                       0                       0        21.9380537763255       0.375884689922643        -21.054052743989 
     0.0300751879699248                     0.5                     0.5       0.601503750435392                     5.5                     5.5     0.00158556384521768     -0.0154359389905441      0.0336851129764767        15.5378755971414                       0                       0        21.5596656902288       0.380727561263077       -20.3450466434281 
     0.0325814536340852                     0.5                     0.5       0.651629062971675                     5.5                     5.5     0.00171769416565248     -0.0167222672397561      0.0364922057245164        15.7060679394345                       0                       0        21.1812776041322        0.38557043260351       -19.6360405428672 
     0.0350877192982456                     0.5                     0.5       0.701754375507957                     5.5                     5.5     0.00184982448608729     -0.0180085954889681      0.0392992984725561        15.8742602817276                       0                       0        20.8028895180355       0.390413303943943       -18.9270344423063 
      0.037593984962406                     0.5                     0.5        0.75187968804424                     5.5                     5.5      0.0019819548065221     -0.0192949237381801      0.0421063912205958        16.0424526240207                       0                       0        20.4245014319389       0.395256175284376       -18.2180283417454 
     0.0401002506265664                     0.5                     0.5       0.802005000580523                     5.5                     5.5      0.0021140851269569     -0.0205812519873922      0.0449134839686355        16.2106449663139                       0                       0        20.0461133458422       0.400099046624809       -17.5090222411845 
     0.0426065162907268                     0.5                     0.5       0.852130313116805                     5.5                     5.5     0.00224621544739171     -0.0218675802366042      0.0477205767166753         16.378837308607                       0                       0        19.6677252597456       0.404941917965242       -16.8000161406237 
     0.0451127819548872                     0.5                     0.5       0.902255625653088                     5.5                     5.5     0.00237834576782652     -0.0231539084858162       0.050527669464715        16.5470296509001                       0                       0        19.2893371736489       0.409784789305675       -16.0910100400628 
     0.0476190476190476                     0.5                     0.5        0.95238093818937                     5.5                     5.5     0.00251047608826132     -0.0244402367350282      0.0533347622127547        16.7152219931932                       0                       0        18.9109490875523       0.414627660646108       -15.3820039395019 
      0.050125313283208                     0.5                     0.5        1.00125312531614                     5.5                     5.5     0.00263629191018753     -0.0256438825247821        0.05593234712256        16.8748866042912                       0                       0        18.5351301402455       0.419204260159599         -14.69042179936 
     0.0526315789473684                     0.5                     0.5        1.02631578065063                     5.5                     5.5     0.00264213150958089     -0.0252765517528987        0.05454925819292        16.8725233086323                       0                       0        18.2081251354471       0.418721663298282       -14.3298969790971 
     0.0551378446115288                     0.5                     0.5        1.05137843598511                     5.5                     5.5     0.00264797110897426     -0.0249092209810153      0.0531661692632801        16.8701600129733                       0                       0        17.8811201306488       0.418239066436965       -13.9693721588343 
     0.0576441102756892                     0.5                     0.5         1.0764410913196                     5.5                     5.5     0.00265381070836762     -0.0245418902091319      0.0517830803336401        16.8677967173144                       0                       0        17.5541151258505       0.417756469575647       -13.6088473385714 
     0.0601503759398496                     0.5                     0.5        1.10150374665408                     5.5                     5.5     0.00265965030776099     -0.0241745594372485      0.0503999914040001        16.8654334216555                       0                       0        17.2271101210522        0.41727387271433       -13.2483225183085 
       0.06265664160401                     0.5                     0.5        1.12656640198857                     5.5                     5.5     0.00266548990715435      -0.023807228665365      0.0490169024743602        16.8630701259966                       0                       0        16.9001051162539       0.416791275853013       -12.8877976980456 
     0.0651629072681704                     0.5                     0.5        1.15162905732305                     5.5                     5.5     0.00267132950654771     -0.0234398978934816      0.0476338135447202        16.8607068303376                       0                       0        16.5731001114556       0.416308678991696       -12.5272728777827 
     0.0676691729323308                     0.5                     0.5        1.17669171265754                     5.5                     5.5     0.00267716910594108     -0.0230725671215982      0.0462507246150803        16.8583435346787                       0                       0        16.2460951066572       0.415826082130378       -12.1667480575198 
     0.0701754385964912                     0.5                     0.5        1.20175436799202                     5.5                     5.5     0.00268300870533444     -0.0227052363497148      0.0448676356854403        16.8559802390198                       0                       0        15.9190901018589       0.415343485269061       -11.8062232372569 
     0.0726817042606516                     0.5                     0.5        1.22681702332651                     5.5                     5.5     0.00268884830472781     -0.0223379055778313      0.0434845467558003        16.8536169433609                       0                       0        15.5920850970606       0.414860888407744        -11.445698416994 
      0.075187969924812                     0.5                     0.5        1.25187967866099                     5.5                     5.5     0.00269468790412117     -0.0219705748059479      0.0421014578261604        16.8512536477019                       0                       0        15.2650800922623       0.414378291546427       -11.0851735967311 
     0.0776942355889724                     0.5                     0.5        1.27694233399548                     5.5                     5.5     0.00270052750351454     -0.0216032440340645      0.0407183688965204         16.848890352043                       0                       0         14.938075087464       0.413895694685109       -10.7246487764682 
     0.0802005012531328                     0.5                     0.5        1.30200498932996                     5.5                     5.5      0.0027063671029079     -0.0212359132621811      0.0393352799668805        16.8465270563841                       0                       0        14.6110700826657       0.413413097823792       -10.3641239562053 
     0.0827067669172932                     0.5                     0.5        1.32706764466444                     5.5                     5.5     0.00271220670230126     -0.0208685824902976      0.0379521910372405        16.8441637607252                       0                       0        14.2840650778673       0.412930500962475       -10.0035991359424 
     0.0852130325814536                     0.5                     0.5        1.35213029999893                     5.5                     5.5     0.00271804630169463     -0.0205012517184142      0.0365691021076006        16.8418004650663                       0                       0         13.957060073069       0.412447904101158       -9.64307431567955 
      0.087719298245614                     0.5                     0.5        1.37719295533341                     5.5                     5.5     0.00272388590108799     -0.0201339209465308      0.0351860131779606        16.8394371694073                       0                       0        13.6300550682707        0.41196530723984       -9.28254949541666 
     0.0902255639097744                     0.5                     0.5         1.4022556106679                     5.5                     5.5     0.00272972550048136     -0.0197665901746474      0.0338029242483206        16.8370738737484                       0                       0        13.3030500634724       0.411482710378523       -8.92202467515377 
     0.0927318295739348                     0.5                     0.5        1.42731826600238                     5.5                     5.5     0.00273556509987472     -0.0193992594027639      0.0324198353186807        16.8347105780895                       0                       0        12.9760450586741       0.411000113517206       -8.56149985489088 
     0.0952380952380952                     0.5                     0.5        1.45238092133687                     5.5                     5.5     0.00274140469926808     -0.0190319286308805      0.0310367463890407        16.8323472824305                       0                       0        12.6490400538758       0.410517516655889       -8.20097503462799 
     0.0977443609022556                     0.5                     0.5        1.47744357667135                     5.5                     5.5     0.00274724429866145     -0.0186645978589971      0.0296536574594008        16.8299839867716                       0                       0        12.3220350490774       0.410034919794571        -7.8404502143651 
      0.100250626566416                     0.5                     0.5        1.50250623200584                     5.5                     5.5     0.00275308389805481     -0.0182972670871136      0.0282705685297608        16.8276206911127                       0                       0        11.9950300442791       0.409552322933254        -7.4799253941022 
      0.102756892230576                     0.5                     0.5        1.52756888734032                     5.5                     5.5     0.00275892349744818     -0.0179299363152302      0.0268874796001208        16.8252573954538                       0                       0        11.6680250394808       0.409069726071937       -7.11940057383931 
      0.105263157894737                     0.5                     0.5        1.55263154267481                     5.5                     5.5     0.00276476309684154     -0.0175626055433468      0.0255043906704809        16.8228940997949                       0                       0        11.3410200346825        0.40858712921062       -6.75887575357642 
      0.107769423558897                     0.5                     0.5        1.57769419800929                     5.5                     5.5     0.00277060269623491     -0.0171952747714634      0.0241213017408409        16.8205308041359                       0                       0        11.0140150298842       0.408104532349302       -6.39835093331353 
      0.110275689223058                     0.5                     0.5        1.60275685334378                     5.5                     5.5     0.00277644229562827       -0.01682794399958       0.022738212811201         16.818167508477                       0                       0        10.6870100250859       0.407621935487985       -6.03782611305064 
      0.112781954887218                     0.5                     0.5        1.62781950867826                     5.5                     5.5     0.00278228189502163     -0.0164606132276965       0.021355123881561        16.8158042128181                       0                       0        10.3600050202875       0.407139338626668       -5.67730129278774 
      0.115288220551378                     0.5                     0.5        1.65288216401275                     5.5                     5.5       0.002788121494415     -0.0160932824558131       0.019972034951921        16.8134409171592                       0                       0        10.0330000154892       0.406656741765351       -5.31677647252485 
      0.117794486215539                     0.5                     0.5        1.67794481934723                     5.5                     5.5     0.00279396109380836     -0.0157259516839297      0.0185889460222811        16.8110776215002                       0                       0         9.7059950106909       0.406174144904033       -4.95625165226196 
      0.120300751879699                     0.5                     0.5        1.70300747468171                     5.5                     5.5     0.00279980069320173     -0.0153586209120463      0.0172058570926411        16.8087143258413                       0                       0        9.37899000589258       0.405691548042716       -4.59572683199907 
       0.12280701754386                     0.5                     0.5         1.7280701300162                     5.5                     5.5     0.00280564029259509     -0.0149912901401628      0.0158227681630012        16.8063510301824                       0                       0        9.05198500109427       0.405208951181399       -4.23520201173618 
       0.12531328320802                     0.5                     0.5        1.75313278535068                     5.5                     5.5     0.00281147989198846     -0.0146239593682794      0.0144396792333612        16.8039877345235                       0                       0        8.72497999629595       0.404726354320082       -3.87467719147329 
       0.12781954887218                     0.5                     0.5        1.77819544068517                     5.5                     5.5     0.00281731949138182      -0.014256628596396      0.0130565903037213        16.8016244388645                       0                       0        8.39797499149763       0.404243757458764       -3.51415237121039 
      0.130325814536341                     0.5                     0.5        1.80325809601965                     5.5                     5.5     0.00282315909077518     -0.0138892978245126      0.0116735013740813        16.7992611432056                       0                       0        8.07096998669932       0.403761160597447        -3.1536275509475 
      0.132832080200501                     0.5                     0.5        1.82832075135414                     5.5                     5.5     0.00282899869016855     -0.0135219670526291      0.0102904124444413        16.7968978475467                       0                       0          7.743964981901        0.40327856373613       -2.79310273068461 
      0.135338345864662                     0.5                     0.5        1.85338340668862                     5.5                     5.5     0.00283483828956191     -0.0131546362807457     0.00890732351480138        16.7945345518878                       0                       0        7.41695997710268       0.402795966874813       -2.43257791042172 
      0.137844611528822                     0.5                     0.5        1.87844606202311                     5.5                     5.5     0.00284067788895528     -0.0127873055088623     0.00752423458516142        16.7921712562288                       0                       0        7.08995497230437       0.402313370013495       -2.07205309015883 
      0.140350877192982                     0.5                     0.5        1.90350871735759                     5.5                     5.5     0.00284651748834864     -0.0124199747369789     0.00614114565552146        16.7898079605699                       0                       0        6.76294996750605       0.401830773152178       -1.71152826989594 
      0.142857142857143                     0.5                     0.5        1.92857137269208                     5.5                     5.5       0.002852357087742     -0.0120526439650954      0.0047580567258815         16.787444664911                       0                       0        6.43594496270773       0.401348176290861       -1.35100344963305 
      0.145363408521303                     0.5                     0.5        1.95363402802656                     5.5                     5.5     0.00285819668713537      -0.011685313193212     0.00337496779624155        16.7850813692521                       0                       0        6.10893995790941       0.400865579429544      -0.990478629370154 
      0.147869674185464                     0.5                     0.5        1.97869668336105                     5.5                     5.5     0.00286403628652873     -0.0113179824213286     0.00199187886660158        16.7827180735931                       0                       0         5.7819349531111       0.400382982568227      -0.629953809107262 
      0.150375939849624                     0.5                     0.5        2.00375933911567                     5.5                     5.5     0.00285837794731267     -0.0109927261605632     0.00073611591091603        16.7806685927369                       0                       0        5.48350041379233       0.399088228298448       -0.32193395211831 
      0.152882205513784                     0.5                     0.5        2.02882199725113                     5.5                     5.5     0.00278756340730441     -0.0109058965767671    0.000201880266067976        16.7803974289333                       0                       0        5.34696819877247        0.39319116286855      -0.311447770153387 
      0.155388471177945                     0.5                     0.5        2.05388465538658                     5.5                     5.5     0.00271674886729616      -0.010819066992971   -0.000332355378780078        16.7801262651297                       0                       0         5.2104359837526       0.387294097438652      -0.300961588188464 
      0.157894736842105                     0.5                     0.5        2.07894731352203                     5.5                     5.5      0.0026459343272879     -0.0107322374091749   -0.000866591023628133        16.7798551013261                       0                       0        5.07390376873273       0.381397032008754      -0.290475406223541 
      0.160401002506266                     0.5                     0.5        2.10400997165749                     5.5                     5.5     0.00257511978727965     -0.0106454078253787    -0.00140082666847619        16.7795839375225                       0                       0        4.93737155371287       0.375499966578856      -0.279989224258617 
      0.162907268170426                     0.5                     0.5        2.12907262979294                     5.5                     5.5     0.00250430524727139     -0.0105585782415826    -0.00193506231332424        16.7793127737188                       0                       0          4.800839338693       0.369602901148958      -0.269503042293694 
      0.165413533834586                     0.5                     0.5         2.1541352879284                     5.5                     5.5     0.00243349070726313     -0.0104717486577865     -0.0024692979581723        16.7790416099152                       0                       0        4.66430712367313        0.36370583571906      -0.259016860328771 
      0.167919799498747                     0.5                     0.5        2.17919794606385                     5.5                     5.5     0.00236267616725488     -0.0103849190739904    -0.00300353360302035        16.7787704461116                       0                       0        4.52777490865327       0.357808770289162      -0.248530678363848 
      0.170426065162907                     0.5                     0.5        2.20426060419931                     5.5                     5.5     0.00229186162724662     -0.0102980894901943     -0.0035377692478684         16.778499282308                       0                       0         4.3912426936334       0.351911704859264      -0.238044496398925 
      0.172932330827068                     0.5                     0.5        2.22932326233476                     5.5                     5.5     0.00222104708723837     -0.0102112599063981    -0.00407200489271646        16.7782281185043                       0                       0        4.25471047861353       0.346014639429366      -0.227558314434002 
      0.175438596491228                     0.5                     0.5        2.25438592047022                     5.5                     5.5     0.00215023254723011      -0.010124430322602    -0.00460624053756451        16.7779569547007                       0                       0        4.11817826359367       0.340117573999468      -0.217072132469079 
      0.177944862155388                     0.5                     0.5        2.27944857860567                     5.5                     5.5     0.00207941800722185     -0.0100376007388059    -0.00514047618241257        16.7776857908971                       0                       0         3.9816460485738        0.33422050856957      -0.206585950504156 
      0.180451127819549                     0.5                     0.5        2.30451123674113                     5.5                     5.5      0.0020086034672136    -0.00995077115500978    -0.00567471182726062        16.7774146270935                       0                       0        3.84511383355393       0.328323443139672      -0.196099768539233 
      0.182957393483709                     0.5                     0.5        2.32957389487658                     5.5                     5.5     0.00193778892720534    -0.00986394157121366    -0.00620894747210867        16.7771434632899                       0                       0        3.70858161853407       0.322426377709774       -0.18561358657431 
       0.18546365914787                     0.5                     0.5        2.35463655301204                     5.5                     5.5     0.00186697438719709    -0.00977711198741754    -0.00674318311695673        16.7768722994862                       0                       0         3.5720494035142       0.316529312279876      -0.175127404609387 
       0.18796992481203                     0.5                     0.5        2.37969921114749                     5.5                     5.5     0.00179615984718883    -0.00969028240362142    -0.00727741876180478        16.7766011356826                       0                       0        3.43551718849433       0.310632246849978      -0.164641222644464 
       0.19047619047619                     0.5                     0.5        2.40476186928295                     5.5                     5.5     0.00172534530718057     -0.0096034528198253    -0.00781165440665284         16.776329971879                       0                       0        3.29898497347446        0.30473518142008      -0.154155040679541 
      0.192982456140351                     0.5                     0.5         2.4298245274184                     5.5                     5.5     0.00165453076717232    -0.00951662323602918    -0.00834589005150089        16.7760588080754                       0                       0         3.1624527584546       0.298838115990182      -0.143668858714618 
      0.195488721804511                     0.5                     0.5        2.45488718555386                     5.5                     5.5     0.00158371622716406    -0.00942979365223306    -0.00888012569634894        16.7757876442717                       0                       0        3.02592054343473       0.292941050560284      -0.133182676749695 
      0.197994987468672                     0.5                     0.5        2.47994984368931                     5.5                     5.5     0.00151290168715581    -0.00934296406843694      -0.009414361341197        16.7755164804681                       0                       0        2.88938832841486       0.287043985130386      -0.122696494784772 
      0.200501253132832                     0.5                     0.5        2.50501250182477                     5.5                     5.5     0.00144208714714755    -0.00925613448464082    -0.00994859698604505        16.7752453166645                       0                       0          2.752856113395       0.281146919700488      -0.112210312819849 
      0.203007518796992                     0.5                     0.5        2.53007515996022                     5.5                     5.5      0.0013712726071393     -0.0091693049008447     -0.0104828326308931        16.7749741528609                       0                       0        2.61632389837513        0.27524985427059      -0.101724130854925 