VARIABLES = "X"
 "Y"
 "Z"
 "I"
 "J"
 "K"
 "U"
 "V"
 "W"
 "T"
 "fu"
 "fv"
 "X Pressure Gradient"
 "Y Pressure Gradient"
 "Z Pressure Gradient"
ZONE
DT=(DOUBLE,DOUBLE,DOUBLE,DOUBLE,DOUBLE,DOUBLE,DOUBLE,DOUBLE,DOUBLE,DOUBLE,DOUBLE,DOUBLE,DOUBLE,DOUBLE,DOUBLE)
                      0                     0.5                     0.5                       0                     5.5                     5.5                       0                       0                       0        13.5195672512054                       0                       0        26.1003214120865       0.322613097727299       -28.8531198501587 
     0.0025062656641604                     0.5                     0.5      0.0501253125362827                     5.5                     5.5    0.000132130329187838    -0.00128632824921201     0.00280709265467405        13.6877596532526                       0                       0        25.7219333678177       0.327455969441195       -28.1441137734994 
     0.0050125313283208                     0.5                     0.5       0.100250625072565                     5.5                     5.5    0.000264260658375676    -0.00257265649842402     0.00561418530934811        13.8559520552997                       0                       0        25.3435453235488        0.33229884115509       -27.4351076968401 
     0.0075187969924812                     0.5                     0.5       0.150375937608848                     5.5                     5.5    0.000396390987563514    -0.00385898474763603     0.00842127796402215        14.0241444573469                       0                       0          24.96515727928       0.337141712868986       -26.7261016201809 
     0.0100250626566416                     0.5                     0.5       0.200501250145131                     5.5                     5.5    0.000528521316751352    -0.00514531299684804      0.0112283706186962         14.192336859394                       0                       0        24.5867692350112       0.341984584582882       -26.0170955435216 
      0.012531328320802                     0.5                     0.5       0.250626562681413                     5.5                     5.5     0.00066065164593919    -0.00643164124606005      0.0140354632733703        14.3605292614412                       0                       0        24.2083811907423       0.346827456296778       -25.3080894668623 
     0.0150375939849624                     0.5                     0.5       0.300751875217696                     5.5                     5.5    0.000792781975127028    -0.00771796949527206      0.0168425559280443        14.5287216634883                       0                       0        23.8299931464735       0.351670328010673       -24.5990833902031 
     0.0175438596491228                     0.5                     0.5       0.350877187753979                     5.5                     5.5    0.000924912304314866    -0.00900429774448407      0.0196496485827184        14.6969140655355                       0                       0        23.4516051022047       0.356513199724569       -23.8900773135438 
     0.0200501253132832                     0.5                     0.5       0.401002500290261                     5.5                     5.5      0.0010570426335027     -0.0102906259936961      0.0224567412373924        14.8651064675826                       0                       0        23.0732170579358       0.361356071438465       -23.1810712368845 
     0.0225563909774436                     0.5                     0.5       0.451127812826544                     5.5                     5.5     0.00118917296269054     -0.0115769542429081      0.0252638338920665        15.0332988696297                       0                       0         22.694829013667       0.366198943152361       -22.4720651602252 
      0.025062656641604                     0.5                     0.5       0.501253125362827                     5.5                     5.5     0.00132130329187838     -0.0128632824921201      0.0280709265467405        15.2014912716769                       0                       0        22.3164409693982       0.371041814866257        -21.763059083566 
     0.0275689223057644                     0.5                     0.5       0.551378437899109                     5.5                     5.5     0.00145343362106622     -0.0141496107413321      0.0308780192014146         15.369683673724                       0                       0        21.9380529251293       0.375884686580152       -21.0540530069067 
     0.0300751879699248                     0.5                     0.5       0.601503750435392                     5.5                     5.5     0.00158556395025406     -0.0154359389905441      0.0336851118560886        15.5378760757712                       0                       0        21.5596648808605       0.380727558294048       -20.3450469302474 
     0.0325814536340852                     0.5                     0.5       0.651629062971675                     5.5                     5.5     0.00171769427944189     -0.0167222672397561      0.0364922045107627        15.7060684778183                       0                       0        21.1812768365917       0.385570430007944       -19.6360408535881 
     0.0350877192982456                     0.5                     0.5       0.701754375507957                     5.5                     5.5     0.00184982460862973     -0.0180085954889681      0.0392992971654367        15.8742608798655                       0                       0        20.8028887923228        0.39041330172184       -18.9270347769289 
      0.037593984962406                     0.5                     0.5        0.75187968804424                     5.5                     5.5     0.00198195493781757     -0.0192949237381801      0.0421063898201108        16.0424532819126                       0                       0         20.424500748054       0.395256173435735       -18.2180287002696 
     0.0401002506265664                     0.5                     0.5       0.802005000580522                     5.5                     5.5     0.00211408526700541     -0.0205812519873922      0.0449134824747848        16.2106456839598                       0                       0        20.0461127037852       0.400099045149631       -17.5090226236103 
     0.0426065162907268                     0.5                     0.5       0.852130313116805                     5.5                     5.5     0.00224621559619325     -0.0218675802366042      0.0477205751294589        16.3788380860069                       0                       0        19.6677246595163       0.404941916863527       -16.8000165469511 
     0.0451127819548872                     0.5                     0.5       0.902255625653088                     5.5                     5.5     0.00237834592538108     -0.0231539084858162      0.0505276677841329         16.547030488054                       0                       0        19.2893366152475       0.409784788577423       -16.0910104702918 
     0.0476190476190476                     0.5                     0.5        0.95238093818937                     5.5                     5.5     0.00251047625456892     -0.0244402367350282       0.053334760438807        16.7152228901012                       0                       0        18.9109485709787       0.414627660291319       -15.3820043936325 
      0.050125313283208                     0.5                     0.5        1.00125312531614                     5.5                     5.5     0.00263629208400816     -0.0256438825247821      0.0559323452622489        16.8748875567704                       0                       0        18.5351296639685       0.419204260187609       -14.6904222755997 
     0.0526315789473684                     0.5                     0.5        1.02631578065063                     5.5                     5.5      0.0026421316673543     -0.0252765517528987      0.0545492563792918        16.8725242372099                       0                       0        18.2081246703741       0.418721663886485        -14.329897443386 
     0.0551378446115288                     0.5                     0.5        1.05137843598511                     5.5                     5.5     0.00264797125070044     -0.0249092209810153      0.0531661674963347        16.8701609176494                       0                       0        17.8811196767796       0.418239067585362       -13.9693726111723 
     0.0576441102756892                     0.5                     0.5         1.0764410913196                     5.5                     5.5     0.00265381083404658     -0.0245418902091319      0.0517830786133776        16.8677975980888                       0                       0        17.5541146831852       0.417756471284239       -13.6088477789586 
     0.0601503759398496                     0.5                     0.5        1.10150374665408                     5.5                     5.5     0.00265965041739272     -0.0241745594372485      0.0503999897304205        16.8654342785283                       0                       0        17.2271096895907       0.417273874983116       -13.2483229467449 
       0.06265664160401                     0.5                     0.5        1.12656640198857                     5.5                     5.5     0.00266549000073886      -0.023807228665365      0.0490169008474633        16.8630709589678                       0                       0        16.9001046959963       0.416791278681992       -12.8877981145312 
     0.0651629072681704                     0.5                     0.5        1.15162905732305                     5.5                     5.5       0.002671329584085     -0.0234398978934816      0.0476338119645062        16.8607076394072                       0                       0        16.5730997024019       0.416308682380869       -12.5272732823175 
     0.0676691729323308                     0.5                     0.5        1.17669171265754                     5.5                     5.5     0.00267716916743114     -0.0230725671215982      0.0462507230815491        16.8583443198467                       0                       0        16.2460947088074       0.415826086079746       -12.1667484501038 
     0.0701754385964912                     0.5                     0.5        1.20175436799202                     5.5                     5.5     0.00268300875077728     -0.0227052363497148       0.044867634198592        16.8559810002862                       0                       0         15.919089715213       0.415343489778623       -11.8062236178901 
     0.0726817042606516                     0.5                     0.5        1.22681702332651                     5.5                     5.5     0.00268884833412342     -0.0223379055778313      0.0434845453156348        16.8536176807256                       0                       0        15.5920847216186       0.414860893477499       -11.4456987856764 
      0.075187969924812                     0.5                     0.5        1.25187967866099                     5.5                     5.5     0.00269468791746956     -0.0219705748059479      0.0421014564326777        16.8512543611651                       0                       0        15.2650797280241       0.414378297176376       -11.0851739534627 
     0.0776942355889724                     0.5                     0.5        1.27694233399548                     5.5                     5.5      0.0027005275008157     -0.0216032440340645      0.0407183675497206        16.8488910416045                       0                       0        14.9380747344297       0.413895700875253        -10.724649121249 
     0.0802005012531328                     0.5                     0.5        1.30200498932996                     5.5                     5.5     0.00270636708416184     -0.0212359132621811      0.0393352786667634         16.846527722044                       0                       0        14.6110697408352        0.41341310457413       -10.3641242890353 
     0.0827067669172932                     0.5                     0.5        1.32706764466444                     5.5                     5.5     0.00271220666750798     -0.0208685824902976      0.0379521897838063        16.8441644024835                       0                       0        14.2840647472408       0.412930508273006       -10.0035994568216 
     0.0852130325814536                     0.5                     0.5        1.35213029999893                     5.5                     5.5     0.00271804625085412     -0.0205012517184142      0.0365691009008492        16.8418010829229                       0                       0        13.9570597536464       0.412447911971883        -9.6430746246079 
      0.087719298245614                     0.5                     0.5        1.37719295533341                     5.5                     5.5     0.00272388583420026     -0.0201339209465308      0.0351860120178921        16.8394377633624                       0                       0        13.6300547600519        0.41196531567076        -9.2825497923942 
     0.0902255639097744                     0.5                     0.5         1.4022556106679                     5.5                     5.5      0.0027297254175464     -0.0197665901746473      0.0338029231349349        16.8370744438019                       0                       0        13.3030497664575       0.411482719369637        -8.9220249601805 
     0.0927318295739348                     0.5                     0.5        1.42731826600238                     5.5                     5.5     0.00273556500089254     -0.0193992594027639      0.0324198342519778        16.8347111242413                       0                       0        12.9760447728631       0.411000123068513       -8.56150012796681 
     0.0952380952380952                     0.5                     0.5        1.45238092133687                     5.5                     5.5     0.00274140458423868     -0.0190319286308805      0.0310367453690207        16.8323478046808                       0                       0        12.6490397792686        0.41051752676739       -8.20097529575311 
     0.0977443609022556                     0.5                     0.5        1.47744357667135                     5.5                     5.5     0.00274724416758482     -0.0186645978589971      0.0296536564860636        16.8299844851203                       0                       0        12.3220347856742       0.410034930466267       -7.84045046353942 
      0.100250626566416                     0.5                     0.5        1.50250623200584                     5.5                     5.5     0.00275308375093096     -0.0182972670871136      0.0282705676031064        16.8276211655597                       0                       0        11.9950297920798       0.409552334165144       -7.47992563132572 
      0.102756892230576                     0.5                     0.5        1.52756888734032                     5.5                     5.5      0.0027589233342771     -0.0179299363152302      0.0268874787201493        16.8252578459992                       0                       0        11.6680247984853        0.40906973786402       -7.11940079911202 
      0.105263157894737                     0.5                     0.5        1.55263154267481                     5.5                     5.5     0.00276476291762324     -0.0175626055433468      0.0255043898371922        16.8228945264387                       0                       0        11.3410198048909       0.408587141562897       -6.75887596689832 
      0.107769423558897                     0.5                     0.5        1.57769419800929                     5.5                     5.5     0.00277060250096938     -0.0171952747714634      0.0241213009542351        16.8205312068781                       0                       0        11.0140148112964       0.408104545261774       -6.39835113468463 
      0.110275689223058                     0.5                     0.5        1.60275685334378                     5.5                     5.5     0.00277644208431552       -0.01682794399958      0.0227382120712779        16.8181678873176                       0                       0         10.687009817702       0.407621948960651       -6.03782630247093 
      0.112781954887218                     0.5                     0.5        1.62781950867826                     5.5                     5.5     0.00278228166766166     -0.0164606132276965      0.0213551231883208        16.8158045677571                       0                       0        10.3600048241076       0.407139352659528       -5.67730147025723 
      0.115288220551378                     0.5                     0.5        1.65288216401275                     5.5                     5.5      0.0027881212510078     -0.0160932824558131      0.0199720343053637        16.8134412481965                       0                       0        10.0329998305131       0.406656756358404       -5.31677663804354 
      0.117794486215539                     0.5                     0.5        1.67794481934723                     5.5                     5.5     0.00279396083435394     -0.0157259516839297      0.0185889454224066         16.811077928636                       0                       0        9.70599483691869       0.406174160057281       -4.95625180582984 
      0.120300751879699                     0.5                     0.5        1.70300747468172                     5.5                     5.5     0.00279980041770008     -0.0153586209120463      0.0172058565394494        16.8087146090754                       0                       0        9.37898984332426       0.405691563756158       -4.59572697361614 
       0.12280701754386                     0.5                     0.5         1.7280701300162                     5.5                     5.5     0.00280564000104622     -0.0149912901401628      0.0158227676564923        16.8063512895149                       0                       0        9.05198484972982       0.405208967455034       -4.23520214140244 
       0.12531328320802                     0.5                     0.5        1.75313278535068                     5.5                     5.5     0.00281147958439236     -0.0146239593682794      0.0144396787735352        16.8039879699544                       0                       0        8.72497985613538       0.404726371153911       -3.87467730918875 
       0.12781954887218                     0.5                     0.5        1.77819544068517                     5.5                     5.5      0.0028173191677385      -0.014256628596396      0.0130565898905781        16.8016246503938                       0                       0        8.39797486254094       0.404243774852788       -3.51415247697505 
      0.130325814536341                     0.5                     0.5        1.80325809601965                     5.5                     5.5     0.00282315875108464     -0.0138892978245126      0.0116735010076209        16.7992613308333                       0                       0        8.07096986894651       0.403761178551665       -3.15362764476135 
      0.132832080200501                     0.5                     0.5        1.82832075135414                     5.5                     5.5     0.00282899833443078     -0.0135219670526291      0.0102904121246638        16.7968980112728                       0                       0        7.74396487535207       0.403278582250542       -2.79310281254766 
      0.135338345864662                     0.5                     0.5        1.85338340668862                     5.5                     5.5     0.00283483791777692     -0.0131546362807457     0.00890732324170669        16.7945346917122                       0                       0        7.41695988175763       0.402795985949418       -2.43257798033396 
      0.137844611528822                     0.5                     0.5        1.87844606202311                     5.5                     5.5     0.00284067750112306     -0.0127873055088623     0.00752423435874957        16.7921713721517                       0                       0         7.0899548881632       0.402313389648295       -2.07205314812026 
      0.140350877192982                     0.5                     0.5        1.90350871735759                     5.5                     5.5      0.0028465170844692     -0.0124199747369789     0.00614114547579244        16.7898080525912                       0                       0        6.76294989456876       0.401830793347172       -1.71152831590657 
      0.142857142857143                     0.5                     0.5        1.92857137269208                     5.5                     5.5     0.00285235666781534     -0.0120526439650954     0.00475805659283532        16.7874447330306                       0                       0        6.43594490097432       0.401348197046049       -1.35100348369287 
      0.145363408521303                     0.5                     0.5        1.95363402802656                     5.5                     5.5     0.00285819625116148      -0.011685313193212     0.00337496770987819        16.7850814134701                       0                       0        6.10893990737989       0.400865600744925      -0.990478651479172 
      0.147869674185464                     0.5                     0.5        1.97869668336105                     5.5                     5.5     0.00286403583450762     -0.0113179824213286     0.00199187882692107        16.7827180939096                       0                       0        5.78193491378545       0.400383004443802      -0.629953819265475 
      0.150375939849624                     0.5                     0.5        2.00375933911567                     5.5                     5.5     0.00285837748340196     -0.0109927261596879     0.00073611591091603        16.7806685927369                       0                       0        5.48350038410205       0.399088250538153      -0.321933952111307 
      0.152882205513784                     0.5                     0.5        2.02882199725112                     5.5                     5.5     0.00278756295506441     -0.0109058965700565    0.000201880266067978        16.7803974289333                       0                       0        5.34696816982911        0.39319118436133      -0.311447770099701 
      0.155388471177945                     0.5                     0.5        2.05388465538658                     5.5                     5.5     0.00271674842672687      -0.010819066980425   -0.000332355378780079        16.7801262651297                       0                       0        5.21043595555617       0.387294118184506      -0.300961588088096 
      0.157894736842105                     0.5                     0.5        2.07894731352203                     5.5                     5.5     0.00264593389838932     -0.0107322373907935   -0.000866591023628132        16.7798551013261                       0                       0        5.07390374128322       0.381397052007683       -0.29047540607649 
      0.160401002506266                     0.5                     0.5        2.10400997165749                     5.5                     5.5     0.00257511937005178      -0.010645407801162    -0.00140082666847619        16.7795839375225                       0                       0        4.93737152701028       0.375499985830859      -0.279989224064884 
      0.162907268170426                     0.5                     0.5        2.12907262979294                     5.5                     5.5     0.00250430484171423     -0.0105585782115306    -0.00193506231332424        16.7793127737188                       0                       0        4.80083931273734       0.369602919654036      -0.269503042053278 
      0.165413533834586                     0.5                     0.5         2.1541352879284                     5.5                     5.5     0.00243349031337668     -0.0104717486218991    -0.00246929795817229        16.7790416099152                       0                       0         4.6643070984644       0.363705853477213      -0.259016860041672 
      0.167919799498747                     0.5                     0.5        2.17919794606385                     5.5                     5.5     0.00236267578503914     -0.0103849190322676    -0.00300353360302035        16.7787704461116                       0                       0        4.52777488419146       0.357808787300389      -0.248530678030066 
      0.170426065162907                     0.5                     0.5        2.20426060419931                     5.5                     5.5     0.00229186125670159     -0.0102980894426361     -0.0035377692478684         16.778499282308                       0                       0        4.39124266991852       0.351911721123566       -0.23804449601846 
      0.172932330827068                     0.5                     0.5        2.22932326233476                     5.5                     5.5     0.00222104672836404     -0.0102112598530047    -0.00407200489271646        16.7782281185043                       0                       0        4.25471045564558       0.346014654946742      -0.227558314006854 
      0.175438596491228                     0.5                     0.5        2.25438592047022                     5.5                     5.5      0.0021502322000265     -0.0101244302633732    -0.00460624053756451        16.7779569547007                       0                       0        4.11817824137264       0.340117588769919      -0.217072131995248 
      0.177944862155388                     0.5                     0.5        2.27944857860567                     5.5                     5.5     0.00207941767168895     -0.0100376006737417    -0.00514047618241257        16.7776857908971                       0                       0        3.98164602709969       0.334220522593096      -0.206585949983642 
      0.180451127819549                     0.5                     0.5        2.30451123674113                     5.5                     5.5     0.00200860314335141    -0.00995077108411023    -0.00567471182726062        16.7774146270935                       0                       0        3.84511381282675       0.328323456416272      -0.196099767972037 
      0.182957393483709                     0.5                     0.5        2.32957389487658                     5.5                     5.5     0.00193778861501386    -0.00986394149447876    -0.00620894747210867        16.7771434632899                       0                       0        3.70858159855381       0.322426390239449      -0.185613585960431 
       0.18546365914787                     0.5                     0.5        2.35463655301204                     5.5                     5.5     0.00186697408667631    -0.00977711190484728    -0.00674318311695673        16.7768722994862                       0                       0        3.57204938428087       0.316529324062625      -0.175127403948825 
       0.18796992481203                     0.5                     0.5        2.37969921114749                     5.5                     5.5     0.00179615955833877    -0.00969028231521581    -0.00727741876180478        16.7766011356826                       0                       0        3.43551717000793       0.310632257885802      -0.164641221937219 
       0.19047619047619                     0.5                     0.5        2.40476186928295                     5.5                     5.5     0.00172534503000122    -0.00960345272558433    -0.00781165440665284         16.776329971879                       0                       0        3.29898495573499       0.304735191708979      -0.154155039925613 
      0.192982456140351                     0.5                     0.5         2.4298245274184                     5.5                     5.5     0.00165453050166367    -0.00951662313595286    -0.00834589005150089        16.7760588080754                       0                       0        3.16245274146204       0.298838125532155      -0.143668857914007 
      0.195488721804511                     0.5                     0.5        2.45488718555386                     5.5                     5.5     0.00158371597332613    -0.00942979354632138    -0.00888012569634895        16.7757876442717                       0                       0         3.0259205271891       0.292941059355332      -0.133182675902401 
      0.197994987468672                     0.5                     0.5        2.47994984368931                     5.5                     5.5     0.00151290144498858    -0.00934296395668991      -0.009414361341197        16.7755164804681                       0                       0        2.88938831291616       0.287043993178508      -0.122696493890795 
      0.200501253132832                     0.5                     0.5        2.50501250182477                     5.5                     5.5     0.00144208691665104    -0.00925613436705843    -0.00994859698604505        16.7752453166645                       0                       0        2.75285609864322       0.281146927001685      -0.112210311879189 
      0.203007518796992                     0.5                     0.5        2.53007515996022                     5.5                     5.5     0.00137127238831349    -0.00916930477742696     -0.0104828326308931        16.7749741528609                       0                       0        2.61632388437028       0.275249860824861      -0.101724129867584 