VARIABLES = "X"
 "Y"
 "Z"
 "I"
 "J"
 "K"
 "U"
 "V"
 "W"
 "T"
 "fu"
 "fv"
 "X Pressure Gradient"
 "Y Pressure Gradient"
 "Z Pressure Gradient"
ZONE
DT=(DOUBLE,DOUBLE,DOUBLE,DOUBLE,DOUBLE,DOUBLE,DOUBLE,DOUBLE,DOUBLE,DOUBLE,DOUBLE,DOUBLE,DOUBLE,DOUBLE,DOUBLE)
                    0.5                     0.5                       0                     5.5                     5.5                       0                       0                       0                       0        25.1914539337158                       0                       0      0.0190126895904541   3.63588333129883E-005         1.3952032327652 
                    0.5                     0.5      0.0025062656641604                     5.5                     5.5      0.0501253125362827     0.00301225568559945   2.50621176882725E-008   8.20551370472687E-005        25.1914495358193                       0                       0      0.0154474806711831   3.60451246609503E-005        1.39793913969825 
                    0.5                     0.5      0.0050125313283208                     5.5                     5.5       0.100250625072565      0.0060245113711989    5.0124235376545E-008    0.000164110274094537        25.1914451379228                       0                       0      0.0118822717519122   3.57314160089124E-005         1.4006750466313 
                    0.5                     0.5      0.0075187969924812                     5.5                     5.5       0.150375937608848     0.00903676705679835   7.51863530648175E-008    0.000246165411141806        25.1914407400262                       0                       0     0.00831706283264124   3.54177073568744E-005        1.40341095356435 
                    0.5                     0.5      0.0100250626566416                     5.5                     5.5       0.200501250145131      0.0120490227423978    1.0024847075309E-007    0.000328220548189075        25.1914363421297                       0                       0     0.00475185391337029   3.51039987048364E-005        1.40614686049739 
                    0.5                     0.5       0.012531328320802                     5.5                     5.5       0.250626562681413      0.0150612784279973   1.25310588441362E-007    0.000410275685236343        25.1914319442332                       0                       0     0.00118664499409933   3.47902900527985E-005        1.40888276743044 
                    0.5                     0.5      0.0150375939849624                     5.5                     5.5       0.300751875217696      0.0180735341135967   1.50372706129635E-007    0.000492330822283612        25.1914275463366                       0                       0    -0.00237856392517162   3.44765814007605E-005        1.41161867436349 
                    0.5                     0.5      0.0175438596491228                     5.5                     5.5       0.350877187753979      0.0210857897991961   1.75434823817907E-007    0.000574385959330881        25.1914231484401                       0                       0    -0.00594377284444258   3.41628727487226E-005        1.41435458129654 
                    0.5                     0.5      0.0200501253132832                     5.5                     5.5       0.401002500290261      0.0240980454847956    2.0049694150618E-007     0.00065644109637815        25.1914187505436                       0                       0    -0.00950898176371353   3.38491640966846E-005        1.41709048822959 
                    0.5                     0.5      0.0225563909774436                     5.5                     5.5       0.451127812826544       0.027110301170395   2.25559059194452E-007    0.000738496233425418         25.191414352647                       0                       0     -0.0130741906829845   3.35354554446466E-005        1.41982639516264 
                    0.5                     0.5       0.025062656641604                     5.5                     5.5       0.501253125362827      0.0301225568559945   2.50621176882725E-007    0.000820551370472687        25.1914099547505                       0                       0     -0.0166393996022554   3.32217467926087E-005        1.42256230209569 
                    0.5                     0.5      0.0275689223057644                     5.5                     5.5       0.551378437899109       0.033134812541594   2.75683294570997E-007    0.000902606507519956         25.191405556854                       0                       0     -0.0202046085215264   3.29080381405707E-005        1.42529820902874 
                    0.5                     0.5      0.0300751879699248                     5.5                     5.5       0.601503750435392      0.0361470682271934    3.0074541225927E-007    0.000984661644567224        25.1914011589574                       0                       0     -0.0237698174407973   3.25943294885328E-005        1.42803411596179 
                    0.5                     0.5      0.0325814536340852                     5.5                     5.5       0.651629062971675      0.0391593239127929   3.25807529947542E-007     0.00106671678161449        25.1913967610609                       0                       0     -0.0273350263600683   3.22806208364948E-005        1.43077002289484 
                    0.5                     0.5      0.0350877192982456                     5.5                     5.5       0.701754375507957      0.0421715795983923   3.50869647635815E-007     0.00114877191866176        25.1913923631644                       0                       0     -0.0309002352793393   3.19669121844569E-005        1.43350592982789 
                    0.5                     0.5       0.037593984962406                     5.5                     5.5        0.75187968804424      0.0451838352839917   3.75931765324087E-007     0.00123082705570903        25.1913879652678                       0                       0     -0.0344654441986102   3.16532035324189E-005        1.43624183676093 
                    0.5                     0.5      0.0401002506265664                     5.5                     5.5       0.802005000580523      0.0481960909695912    4.0099388301236E-007      0.0013128821927563        25.1913835673713                       0                       0     -0.0380306531178812   3.13394948803809E-005        1.43897774369398 
                    0.5                     0.5      0.0426065162907268                     5.5                     5.5       0.852130313116805      0.0512083466551907   4.26056000700632E-007     0.00139493732980357        25.1913791694748                       0                       0     -0.0415958620371521    3.1025786228343E-005        1.44171365062703 
                    0.5                     0.5      0.0451127819548872                     5.5                     5.5       0.902255625653088      0.0542206023407901   4.51118118388905E-007     0.00147699246685084        25.1913747715783                       0                       0     -0.0451610709564231    3.0712077576305E-005        1.44444955756008 
                    0.5                     0.5      0.0476190476190476                     5.5                     5.5        0.95238093818937      0.0572328580263895   4.76180236077177E-007     0.00155904760389811        25.1913703736817                       0                       0      -0.048726279875694   3.03983689242671E-005        1.44718546449313 
                    0.5                     0.5       0.050125313283208                     5.5                     5.5        1.00125312531614      0.0600489619933023   5.00302557281345E-007     0.00163983959019212        25.1916243757571                       0                       0     -0.0522192477315784    3.0072709538521E-005        1.44986758355618 
                    0.5                     0.5      0.0526315789473684                     5.5                     5.5        1.02631578065063      0.0591381599803789   5.06568633534457E-007     0.00169663156197064        25.1967880080265                       0                       0     -0.0543396267927907   2.95199847912352E-005        1.45152772669322 
                    0.5                     0.5      0.0551378446115288                     5.5                     5.5        1.05137843598511      0.0582273579674554    5.1283470978757E-007     0.00175342353374915        25.2019516402959                       0                       0     -0.0564600058540031   2.89672600439494E-005        1.45318786983026 
                    0.5                     0.5      0.0576441102756892                     5.5                     5.5         1.0764410913196       0.057316555954532   5.19100786040683E-007     0.00181021550552766        25.2071152725653                       0                       0     -0.0585803849152154   2.84145352966636E-005         1.4548480129673 
                    0.5                     0.5      0.0601503759398496                     5.5                     5.5        1.10150374665408      0.0564057539416086   5.25366862293795E-007     0.00186700747730617        25.2122789048347                       0                       0     -0.0607007639764277   2.78618105493778E-005        1.45650815610433 
                    0.5                     0.5        0.06265664160401                     5.5                     5.5        1.12656640198857      0.0554949519286852   5.31632938546908E-007     0.00192379944908468         25.217442537104                       0                       0       -0.06282114303764    2.7309085802092E-005        1.45816829924137 
                    0.5                     0.5      0.0651629072681704                     5.5                     5.5        1.15162905732305      0.0545841499157618   5.37899014800021E-007     0.00198059142086319        25.2226061693734                       0                       0     -0.0649415220988523   2.67563610548062E-005        1.45982844237841 
                    0.5                     0.5      0.0676691729323308                     5.5                     5.5        1.17669171265754      0.0536733479028384   5.44165091053134E-007      0.0020373833926417        25.2277698016428                       0                       0     -0.0670619011600646   2.62036363075204E-005        1.46148858551545 
                    0.5                     0.5      0.0701754385964912                     5.5                     5.5        1.20175436799202       0.052762545889915   5.50431167306246E-007     0.00209417536442022        25.2329334339122                       0                       0      -0.069182280221277   2.56509115602346E-005        1.46314872865249 
                    0.5                     0.5      0.0726817042606516                     5.5                     5.5        1.22681702332651      0.0518517438769916   5.56697243559359E-007     0.00215096733619873        25.2380970661816                       0                       0     -0.0713026592824893   2.50981868129487E-005        1.46480887178952 
                    0.5                     0.5       0.075187969924812                     5.5                     5.5        1.25187967866099      0.0509409418640682   5.62963319812472E-007     0.00220775930797724        25.2432606984509                       0                       0     -0.0734230383437016   2.45454620656629E-005        1.46646901492656 
                    0.5                     0.5      0.0776942355889724                     5.5                     5.5        1.27694233399548      0.0500301398511448   5.69229396065584E-007     0.00226455127975575        25.2484243307203                       0                       0     -0.0755434174049139   2.39927373183771E-005         1.4681291580636 
                    0.5                     0.5      0.0802005012531328                     5.5                     5.5        1.30200498932996      0.0491193378382214   5.75495472318697E-007     0.00232134325153426        25.2535879629897                       0                       0     -0.0776637964661262   2.34400125710913E-005        1.46978930120064 
                    0.5                     0.5      0.0827067669172932                     5.5                     5.5        1.32706764466444       0.048208535825298    5.8176154857181E-007     0.00237813522331277        25.2587515952591                       0                       0     -0.0797841755273385   2.28872878238055E-005        1.47144944433768 
                    0.5                     0.5      0.0852130325814536                     5.5                     5.5        1.35213029999893      0.0472977338123746   5.88027624824923E-007     0.00243492719509128        25.2639152275284                       0                       0     -0.0819045545885509   2.23345630765197E-005        1.47310958747472 
                    0.5                     0.5       0.087719298245614                     5.5                     5.5        1.37719295533341      0.0463869317994512   5.94293701078035E-007      0.0024917191668698        25.2690788597978                       0                       0     -0.0840249336497632   2.17818383292339E-005        1.47476973061175 
                    0.5                     0.5      0.0902255639097744                     5.5                     5.5         1.4022556106679      0.0454761297865278   6.00559777331148E-007     0.00254851113864831        25.2742424920672                       0                       0     -0.0861453127109755   2.12291135819481E-005        1.47642987374879 
                    0.5                     0.5      0.0927318295739348                     5.5                     5.5        1.42731826600238      0.0445653277736044   6.06825853584261E-007     0.00260530311042682        25.2794061243366                       0                       0     -0.0882656917721878   2.06763888346623E-005        1.47809001688583 
                    0.5                     0.5      0.0952380952380952                     5.5                     5.5        1.45238092133687       0.043654525760681   6.13091929837373E-007     0.00266209508220533         25.284569756606                       0                       0     -0.0903860708334001   2.01236640873765E-005        1.47975016002287 
                    0.5                     0.5      0.0977443609022556                     5.5                     5.5        1.47744357667135      0.0427437237477576   6.19358006090486E-007     0.00271888705398384        25.2897333888753                       0                       0     -0.0925064498946124   1.95709393400907E-005        1.48141030315991 
                    0.5                     0.5       0.100250626566416                     5.5                     5.5        1.50250623200584      0.0418329217348342   6.25624082343599E-007     0.00277567902576235        25.2948970211447                       0                       0     -0.0946268289558247   1.90182145928049E-005        1.48307044629695 
                    0.5                     0.5       0.102756892230576                     5.5                     5.5        1.52756888734032      0.0409221197219108   6.31890158596712E-007     0.00283247099754087        25.3000606534141                       0                       0     -0.0967472080170371   1.84654898455191E-005        1.48473058943398 
                    0.5                     0.5       0.105263157894737                     5.5                     5.5        1.55263154267481      0.0400113177089874   6.38156234849824E-007     0.00288926296931938        25.3052242856835                       0                       0     -0.0988675870782494   1.79127650982333E-005        1.48639073257102 
                    0.5                     0.5       0.107769423558897                     5.5                     5.5        1.57769419800929       0.039100515696064   6.44422311102937E-007     0.00294605494109789        25.3103879179529                       0                       0      -0.100987966139462   1.73600403509475E-005        1.48805087570806 
                    0.5                     0.5       0.110275689223058                     5.5                     5.5        1.60275685334378      0.0381897136831406    6.5068838735605E-007      0.0030028469128764        25.3155515502222                       0                       0      -0.103108345200674   1.68073156036617E-005         1.4897110188451 
                    0.5                     0.5       0.112781954887218                     5.5                     5.5        1.62781950867826      0.0372789116702172   6.56954463609162E-007     0.00305963888465491        25.3207151824916                       0                       0      -0.105228724261886   1.62545908563759E-005        1.49137116198214 
                    0.5                     0.5       0.115288220551378                     5.5                     5.5        1.65288216401275      0.0363681096572938   6.63220539862275E-007     0.00311643085643342         25.325878814761                       0                       0      -0.107349103323099   1.57018661090901E-005        1.49303130511918 
                    0.5                     0.5       0.117794486215539                     5.5                     5.5        1.67794481934723      0.0354573076443703   6.69486616115388E-007     0.00317322282821193        25.3310424470304                       0                       0      -0.109469482384311   1.51491413618043E-005        1.49469144825621 
                    0.5                     0.5       0.120300751879699                     5.5                     5.5        1.70300747468171      0.0345465056314469   6.75752692368501E-007     0.00323001479999045        25.3362060792997                       0                       0      -0.111589861445523   1.45964166145185E-005        1.49635159139325 
                    0.5                     0.5        0.12280701754386                     5.5                     5.5         1.7280701300162      0.0336357036185235   6.82018768621613E-007     0.00328680677176896        25.3413697115691                       0                       0      -0.113710240506736   1.40436918672327E-005        1.49801173453029 
                    0.5                     0.5        0.12531328320802                     5.5                     5.5        1.75313278535068      0.0327249016056001   6.88284844874726E-007     0.00334359874354747        25.3465333438385                       0                       0      -0.115830619567948   1.34909671199469E-005        1.49967187766733 
                    0.5                     0.5        0.12781954887218                     5.5                     5.5        1.77819544068517      0.0318140995926767   6.94550921127839E-007     0.00340039071532598        25.3516969761079                       0                       0       -0.11795099862916   1.29382423726611E-005        1.50133202080437 
                    0.5                     0.5       0.130325814536341                     5.5                     5.5        1.80325809601965      0.0309032975797533   7.00816997380952E-007     0.00345718268710449        25.3568606083773                       0                       0      -0.120071377690373   1.23855176253753E-005        1.50299216394141 
                    0.5                     0.5       0.132832080200501                     5.5                     5.5        1.82832075135414      0.0299924955668299   7.07083073634064E-007       0.003513974658883        25.3620242406466                       0                       0      -0.122191756751585   1.18327928780895E-005        1.50465230707844 
                    0.5                     0.5       0.135338345864662                     5.5                     5.5        1.85338340668862      0.0290816935539065   7.13349149887177E-007     0.00357076663066152         25.367187872916                       0                       0      -0.124312135812797   1.12800681308037E-005        1.50631245021548 
                    0.5                     0.5       0.137844611528822                     5.5                     5.5        1.87844606202311      0.0281708915409831    7.1961522614029E-007     0.00362755860244003        25.3723515051854                       0                       0      -0.126432514874009   1.07273433835179E-005        1.50797259335252 
                    0.5                     0.5       0.140350877192982                     5.5                     5.5        1.90350871735759      0.0272600895280597   7.25881302393402E-007     0.00368435057421854        25.3775151374548                       0                       0      -0.128552893935222   1.01746186362321E-005        1.50963273648956 
                    0.5                     0.5       0.142857142857143                     5.5                     5.5        1.92857137269208      0.0263492875151363   7.32147378646515E-007     0.00374114254599705        25.3826787697242                       0                       0      -0.130673272996434   9.62189388894627E-006         1.5112928796266 
                    0.5                     0.5       0.145363408521303                     5.5                     5.5        1.95363402802656      0.0254384855022129   7.38413454899628E-007     0.00379793451777556        25.3878424019935                       0                       0      -0.132793652057646   9.06916914166046E-006        1.51295302276364 
                    0.5                     0.5       0.147869674185464                     5.5                     5.5        1.97869668336105      0.0245276834892895   7.44679531152741E-007     0.00385472648955407        25.3930060342629                       0                       0      -0.134914031118859   8.51644439437466E-006        1.51461316590067 
                    0.5                     0.5       0.150375939849624                     5.5                     5.5        2.00375933911567      0.0236943257363698   7.42486975387762E-007     0.00389430538984624        25.3977780209918                       0                       0      -0.136482821663971   7.98276593399251E-006        1.51626262521376 
                    0.5                     0.5       0.152882205513784                     5.5                     5.5        2.02882199725113      0.0232998269760412   6.92361277437964E-007     0.00383634173228419        25.4003306415943                       0                       0      -0.134925885647954   7.55701844593462E-006        1.51785154172851 
                    0.5                     0.5       0.155388471177945                     5.5                     5.5        2.05388465538658      0.0229053282157126   6.42235579488166E-007     0.00377837807472214        25.4028832621968                       0                       0      -0.133368949631937   7.13127095787673E-006        1.51944045824326 
                    0.5                     0.5       0.157894736842105                     5.5                     5.5        2.07894731352203      0.0225108294553839   5.92109881538368E-007     0.00372041441716008        25.4054358827994                       0                       0      -0.131812013615921   6.70552346981884E-006          1.521029374758 
                    0.5                     0.5       0.160401002506266                     5.5                     5.5        2.10400997165749      0.0221163306950553    5.4198418358857E-007     0.00366245075959803        25.4079885034019                       0                       0      -0.130255077599904   6.27977598176095E-006        1.52261829127275 
                    0.5                     0.5       0.162907268170426                     5.5                     5.5        2.12907262979294      0.0217218319347267   4.91858485638772E-007     0.00360448710203598        25.4105411240044                       0                       0      -0.128698141583887   5.85402849370306E-006         1.5242072077875 
                    0.5                     0.5       0.165413533834586                     5.5                     5.5         2.1541352879284       0.021327333174398   4.41732787688974E-007     0.00354652344447392        25.4130937446069                       0                       0      -0.127141205567871   5.42828100564518E-006        1.52579612430224 
                    0.5                     0.5       0.167919799498747                     5.5                     5.5        2.17919794606385      0.0209328344140694   3.91607089739176E-007     0.00348855978691187        25.4156463652094                       0                       0      -0.125584269551854   5.00253351758728E-006        1.52738504081699 
                    0.5                     0.5       0.170426065162907                     5.5                     5.5        2.20426060419931      0.0205383356537408   3.41481391789378E-007     0.00343059612934982        25.4181989858119                       0                       0      -0.124027333535837    4.5767860295294E-006        1.52897395733174 
                    0.5                     0.5       0.172932330827068                     5.5                     5.5        2.22932326233476      0.0201438368934122   2.91355693839579E-007     0.00337263247178776        25.4207516064144                       0                       0      -0.122470397519821   4.15103854147151E-006        1.53056287384648 
                    0.5                     0.5       0.175438596491228                     5.5                     5.5        2.25438592047022      0.0197493381330835   2.41229995889781E-007     0.00331466881422571        25.4233042270169                       0                       0      -0.120913461503804   3.72529105341362E-006        1.53215179036123 
                    0.5                     0.5       0.177944862155388                     5.5                     5.5        2.27944857860567      0.0193548393727549   1.91104297939983E-007     0.00325670515666365        25.4258568476194                       0                       0      -0.119356525487787   3.29954356535573E-006        1.53374070687598 
                    0.5                     0.5       0.180451127819549                     5.5                     5.5        2.30451123674113      0.0189603406124263   1.40978599990185E-007      0.0031987414991016        25.4284094682219                       0                       0      -0.117799589471771   2.87379607729784E-006        1.53532962339073 
                    0.5                     0.5       0.182957393483709                     5.5                     5.5        2.32957389487658      0.0185658418520976    9.0852902040387E-008     0.00314077784153955        25.4309620888244                       0                       0      -0.116242653455754   2.44804858923995E-006        1.53691853990547 
                    0.5                     0.5        0.18546365914787                     5.5                     5.5        2.35463655301204       0.018171343091769   4.07272040905888E-008     0.00308281418397749        25.4335147094269                       0                       0      -0.114685717439737   2.02230110118206E-006        1.53850745642022 
                    0.5                     0.5        0.18796992481203                     5.5                     5.5        2.37969921114749      0.0177768443314404  -9.39849385920916E-009     0.00302485052641544        25.4360673300294                       0                       0      -0.113128781423721   1.59655361312417E-006        1.54009637293497 
                    0.5                     0.5        0.19047619047619                     5.5                     5.5        2.40476186928295      0.0173823455711117  -5.95241918090073E-008     0.00296688686885339        25.4386199506319                       0                       0      -0.111571845407704   1.17080612506628E-006        1.54168528944971 
                    0.5                     0.5       0.192982456140351                     5.5                     5.5         2.4298245274184      0.0169878468107831  -1.09649889758805E-007     0.00290892321129133        25.4411725712344                       0                       0      -0.110014909391687   7.45058637008392E-007        1.54327420596446 
                    0.5                     0.5       0.195488721804511                     5.5                     5.5        2.45488718555386      0.0165933480504545  -1.59775587708603E-007     0.00285095955372928        25.4437251918369                       0                       0      -0.108457973375671   3.19311148950503E-007        1.54486312247921 
                    0.5                     0.5       0.197994987468672                     5.5                     5.5        2.47994984368931      0.0161988492901258  -2.09901285658402E-007     0.00279299589616723        25.4462778124394                       0                       0      -0.106901037359654  -1.06436339107386E-007        1.54645203899396 
                    0.5                     0.5       0.200501253132832                     5.5                     5.5        2.50501250182477      0.0158043505297972    -2.600269836082E-007     0.00273503223860517        25.4488304330419                       0                       0      -0.105344101343637  -5.32183827165276E-007         1.5480409555087 
                    0.5                     0.5       0.203007518796992                     5.5                     5.5        2.53007515996022      0.0154098517694686  -3.10152681557998E-007     0.00267706858104312        25.4513830536444                       0                       0      -0.103787165327621  -9.57931315223166E-007        1.54962987202345 