VARIABLES = "X"
 "Y"
 "Z"
 "I"
 "J"
 "K"
 "U"
 "V"
 "W"
 "T"
 "fu"
 "fv"
 "X Pressure Gradient"
 "Y Pressure Gradient"
 "Z Pressure Gradient"
ZONE
DT=(DOUBLE,DOUBLE,DOUBLE,DOUBLE,DOUBLE,DOUBLE,DOUBLE,DOUBLE,DOUBLE,DOUBLE,DOUBLE,DOUBLE,DOUBLE,DOUBLE,DOUBLE)
                      0                     0.5                     0.5                       0                     5.5                     5.5                       0                       0                       0                      10                       0                       0         106.23628616333                       0       0.471078708767891 
     0.0025062656641604                     0.5                     0.5      0.0501253125362827                     5.5                     5.5  -2.44486206220953E-005   2.50628471075713E-008    -0.00361551368884164        10.7909400363171                       0                       0        104.725715592792    1.0456955067932E-007       0.488216672929679 
     0.0050125313283208                     0.5                     0.5       0.100250625072565                     5.5                     5.5  -4.88972412441907E-005   5.01256942151427E-008    -0.00723102737768328        11.5818800726342                       0                       0        103.215145022253   2.09139101358639E-007       0.505354637091467 
     0.0075187969924812                     0.5                     0.5       0.150375937608848                     5.5                     5.5  -7.33458618662859E-005   7.51885413227139E-008     -0.0108465410665249        12.3728201089514                       0                       0        101.704574451715   3.13708652037959E-007       0.522492601253255 
     0.0100250626566416                     0.5                     0.5       0.200501250145131                     5.5                     5.5  -9.77944824883813E-005   1.00251388430285E-007     -0.0144620547553665        13.1637601452685                       0                       0        100.194003881177   4.18278202717279E-007       0.539630565415043 
      0.012531328320802                     0.5                     0.5       0.250626562681413                     5.5                     5.5   -0.000122243103110477   1.25314235537857E-007     -0.0180775684442082        13.9547001815856                       0                       0        98.6834333106385   5.22847753396598E-007       0.556768529576831 
     0.0150375939849624                     0.5                     0.5       0.300751875217696                     5.5                     5.5   -0.000146691723732572   1.50377082645428E-007     -0.0216930821330498        14.7456402179027                       0                       0        97.1728627401002   6.27417304075918E-007       0.573906493738619 
     0.0175438596491228                     0.5                     0.5       0.350877187753979                     5.5                     5.5   -0.000171140344354667   1.75439929752999E-007     -0.0253085958218914        15.5365802542198                       0                       0        95.6622921695619   7.31986854755238E-007       0.591044457900407 
     0.0200501253132832                     0.5                     0.5       0.401002500290261                     5.5                     5.5   -0.000195588964976763   2.00502776860571E-007     -0.0289241095107331         16.327520290537                       0                       0        94.1517215990236   8.36556405434557E-007       0.608182422062195 
     0.0225563909774436                     0.5                     0.5       0.451127812826544                     5.5                     5.5   -0.000220037585598858   2.25565623968142E-007     -0.0325396231995747        17.1184603268541                       0                       0        92.6411510284853   9.41125956113877E-007       0.625320386223983 
      0.025062656641604                     0.5                     0.5       0.501253125362827                     5.5                     5.5   -0.000244486206220953   2.50628471075713E-007     -0.0361551368884163        17.9094003631712                       0                       0         91.130580457947    1.0456955067932E-006       0.642458350385771 
     0.0275689223057644                     0.5                     0.5       0.551378437899109                     5.5                     5.5   -0.000268934826843049   2.75691318183285E-007      -0.039770650577258        18.7003403994883                       0                       0        89.6200098874087   1.15026505747252E-006       0.659596314547559 
     0.0300751879699248                     0.5                     0.5       0.601503750435392                     5.5                     5.5   -0.000293383447465144   3.00754165290856E-007     -0.0433861642660996        19.4912804358054                       0                       0        88.1094393168704   1.25483460815184E-006       0.676734278709347 
     0.0325814536340852                     0.5                     0.5       0.651629062971675                     5.5                     5.5   -0.000317832068087239   3.25817012398427E-007     -0.0470016779549413        20.2822204721226                       0                       0        86.5988687463321   1.35940415883116E-006       0.693872242871135 
     0.0350877192982456                     0.5                     0.5       0.701754375507957                     5.5                     5.5   -0.000342280688709335   3.50879859505998E-007     -0.0506171916437829        21.0731605084397                       0                       0        85.0882981757938   1.46397370951048E-006       0.711010207032923 
      0.037593984962406                     0.5                     0.5        0.75187968804424                     5.5                     5.5    -0.00036672930933143    3.7594270661357E-007     -0.0542327053326245        21.8641005447568                       0                       0        83.5777276052555    1.5685432601898E-006       0.728148171194711 
     0.0401002506265664                     0.5                     0.5       0.802005000580522                     5.5                     5.5   -0.000391177929953525   4.01005553721141E-007     -0.0578482190214662        22.6550405810739                       0                       0        82.0671570347172   1.67311281086911E-006       0.745286135356499 
     0.0426065162907268                     0.5                     0.5       0.852130313116805                     5.5                     5.5    -0.00041562655057562   4.26068400828712E-007     -0.0614637327103078         23.445980617391                       0                       0        80.5565864641789   1.77768236154843E-006       0.762424099518287 
     0.0451127819548872                     0.5                     0.5       0.902255625653088                     5.5                     5.5   -0.000440075171197716   4.51131247936284E-007     -0.0650792463991494        24.2369206537082                       0                       0        79.0460158936406   1.88225191222775E-006       0.779562063680075 
     0.0476190476190476                     0.5                     0.5        0.95238093818937                     5.5                     5.5   -0.000464523791819811   4.76194095043855E-007     -0.0686947600879911        25.0278606900253                       0                       0        77.5354453231023   1.98682146290707E-006       0.796700027841863 
      0.050125313283208                     0.5                     0.5        1.00125312531614                     5.5                     5.5   -0.000489096471835547   5.00317086188661E-007     -0.0720387509656711        25.7794602125986                       0                       0        76.0340686417003   2.08765640892523E-006       0.813572265079282 
     0.0526315789473684                     0.5                     0.5        1.02631578065063                     5.5                     5.5   -0.000516026295082595   5.06582702280787E-007     -0.0702237761439675        25.7835852959818                       0                       0         74.707376947151   2.11753342229203E-006       0.825395659155574 
     0.0551378446115288                     0.5                     0.5        1.05137843598511                     5.5                     5.5   -0.000542956118329643   5.12848318372914E-007      -0.068408801322264        25.7877103793649                       0                       0        73.3806852526017   2.14741043565883E-006       0.837219053231866 
     0.0576441102756892                     0.5                     0.5         1.0764410913196                     5.5                     5.5   -0.000569885941576692   5.19113934465041E-007     -0.0665938265005604         25.791835462748                       0                       0        72.0539935580525   2.17728744902563E-006       0.849042447308158 
     0.0601503759398496                     0.5                     0.5        1.10150374665408                     5.5                     5.5    -0.00059681576482374   5.25379550557168E-007     -0.0647788516788569        25.7959605461312                       0                       0        70.7273018635032   2.20716446239243E-006        0.86086584138445 
       0.06265664160401                     0.5                     0.5        1.12656640198857                     5.5                     5.5   -0.000623745588070788   5.31645166649295E-007     -0.0629638768571533        25.8000856295143                       0                       0        69.4006101689539   2.23704147575923E-006       0.872689235460742 
     0.0651629072681704                     0.5                     0.5        1.15162905732305                     5.5                     5.5   -0.000650675411317837   5.37910782741422E-007     -0.0611489020354497        25.8042107128975                       0                       0        68.0739184744047   2.26691848912603E-006       0.884512629537034 
     0.0676691729323308                     0.5                     0.5        1.17669171265754                     5.5                     5.5   -0.000677605234564885   5.44176398833549E-007     -0.0593339272137462        25.8083357962806                       0                       0        66.7472267798554   2.29679550249283E-006       0.896336023613326 
     0.0701754385964912                     0.5                     0.5        1.20175436799202                     5.5                     5.5   -0.000704535057811933   5.50442014925676E-007     -0.0575189523920426        25.8124608796637                       0                       0        65.4205350853061   2.32667251585963E-006       0.908159417689618 
     0.0726817042606516                     0.5                     0.5        1.22681702332651                     5.5                     5.5   -0.000731464881058982   5.56707631017802E-007     -0.0557039775703391        25.8165859630469                       0                       0        64.0938433907569   2.35654952922643E-006        0.91998281176591 
      0.075187969924812                     0.5                     0.5        1.25187967866099                     5.5                     5.5    -0.00075839470430603   5.62973247109929E-007     -0.0538890027486355          25.82071104643                       0                       0        62.7671516962076   2.38642654259323E-006       0.931806205842202 
     0.0776942355889724                     0.5                     0.5        1.27694233399548                     5.5                     5.5   -0.000785324527553078   5.69238863202056E-007     -0.0520740279269319        25.8248361298131                       0                       0        61.4404600016583   2.41630355596003E-006       0.943629599918494 
     0.0802005012531328                     0.5                     0.5        1.30200498932996                     5.5                     5.5   -0.000812254350800127   5.75504479294183E-007     -0.0502590531052284        25.8289612131963                       0                       0        60.1137683071091   2.44618056932683E-006       0.955452993994786 
     0.0827067669172932                     0.5                     0.5        1.32706764466444                     5.5                     5.5   -0.000839184174047175    5.8177009538631E-007     -0.0484440782835248        25.8330862965794                       0                       0        58.7870766125598   2.47605758269363E-006       0.967276388071078 
     0.0852130325814536                     0.5                     0.5        1.35213029999893                     5.5                     5.5   -0.000866113997294223   5.88035711478437E-007     -0.0466291034618213        25.8372113799626                       0                       0        57.4603849180105   2.50593459606043E-006        0.97909978214737 
      0.087719298245614                     0.5                     0.5        1.37719295533341                     5.5                     5.5   -0.000893043820541272   5.94301327570564E-007     -0.0448141286401177        25.8413364633457                       0                       0        56.1336932234613   2.53581160942723E-006       0.990923176223662 
     0.0902255639097744                     0.5                     0.5         1.4022556106679                     5.5                     5.5    -0.00091997364378832   6.00566943662691E-007     -0.0429991538184141        25.8454615467288                       0                       0         54.807001528912   2.56568862279403E-006        1.00274657029995 
     0.0927318295739348                     0.5                     0.5        1.42731826600238                     5.5                     5.5   -0.000946903467035368   6.06832559754818E-007     -0.0411841789967106         25.849586630112                       0                       0        53.4803098343627   2.59556563616083E-006        1.01456996437625 
     0.0952380952380952                     0.5                     0.5        1.45238092133687                     5.5                     5.5   -0.000973833290282417   6.13098175846944E-007      -0.039369204175007        25.8537117134951                       0                       0        52.1536181398135   2.62544264952763E-006        1.02639335845254 
     0.0977443609022556                     0.5                     0.5        1.47744357667135                     5.5                     5.5    -0.00100076311352947   6.19363791939071E-007     -0.0375542293533035        25.8578367968782                       0                       0        50.8269264452642   2.65531966289443E-006        1.03821675252883 
      0.100250626566416                     0.5                     0.5        1.50250623200584                     5.5                     5.5    -0.00102769293677651   6.25629408031198E-007     -0.0357392545315999        25.8619618802614                       0                       0        49.5002347507149   2.68519667626123E-006        1.05004014660512 
      0.102756892230576                     0.5                     0.5        1.52756888734032                     5.5                     5.5    -0.00105462276002356   6.31895024123325E-007     -0.0339242797098963        25.8660869636445                       0                       0        48.1735430561657   2.71507368962803E-006        1.06186354068141 
      0.105263157894737                     0.5                     0.5        1.55263154267481                     5.5                     5.5    -0.00108155258327061   6.38160640215452E-007     -0.0321093048881928        25.8702120470277                       0                       0        46.8468513616164   2.74495070299483E-006        1.07368693475771 
      0.107769423558897                     0.5                     0.5        1.57769419800929                     5.5                     5.5    -0.00110848240651766   6.44426256307579E-007     -0.0302943300664892        25.8743371304108                       0                       0        45.5201596670672   2.77482771636163E-006          1.085510328834 
      0.110275689223058                     0.5                     0.5        1.60275685334378                     5.5                     5.5    -0.00113541222976471   6.50691872399706E-007     -0.0284793552447856        25.8784622137939                       0                       0        44.1934679725179   2.80470472972843E-006        1.09733372291029 
      0.112781954887218                     0.5                     0.5        1.62781950867826                     5.5                     5.5    -0.00116234205301175   6.56957488491833E-007     -0.0266643804230821        25.8825872971771                       0                       0        42.8667762779686   2.83458174309523E-006        1.10915711698658 
      0.115288220551378                     0.5                     0.5        1.65288216401275                     5.5                     5.5     -0.0011892718762588    6.6322310458396E-007     -0.0248494056013785        25.8867123805602                       0                       0        41.5400845834194   2.86445875646203E-006        1.12098051106287 
      0.117794486215539                     0.5                     0.5        1.67794481934723                     5.5                     5.5    -0.00121620169950585   6.69488720676087E-007      -0.023034430779675        25.8908374639434                       0                       0        40.2133928888701   2.89433576982883E-006        1.13280390513917 
      0.120300751879699                     0.5                     0.5        1.70300747468172                     5.5                     5.5     -0.0012431315227529   6.75754336768213E-007     -0.0212194559579714        25.8949625473265                       0                       0        38.8867011943208   2.92421278319563E-006        1.14462729921546 
       0.12280701754386                     0.5                     0.5         1.7280701300162                     5.5                     5.5    -0.00127006134599995    6.8201995286034E-007     -0.0194044811362678        25.8990876307096                       0                       0        37.5600094997716   2.95408979656243E-006        1.15645069329175 
       0.12531328320802                     0.5                     0.5        1.75313278535068                     5.5                     5.5      -0.001296991169247   6.88285568952467E-007     -0.0175895063145643        25.9032127140928                       0                       0        36.2333178052223   2.98396680992923E-006        1.16827408736804 
       0.12781954887218                     0.5                     0.5        1.77819544068517                     5.5                     5.5    -0.00132392099249405   6.94551185044594E-007     -0.0157745314928607        25.9073377974759                       0                       0         34.906626110673   3.01384382329603E-006        1.18009748144433 
      0.130325814536341                     0.5                     0.5        1.80325809601965                     5.5                     5.5    -0.00135085081574109   7.00816801136721E-007     -0.0139595566711572         25.911462880859                       0                       0        33.5799344161238   3.04372083666283E-006        1.19192087552063 
      0.132832080200501                     0.5                     0.5        1.82832075135414                     5.5                     5.5    -0.00137778063898814   7.07082417228848E-007     -0.0121445818494536        25.9155879642422                       0                       0        32.2532427215745   3.07359785002963E-006        1.20374426959692 
      0.135338345864662                     0.5                     0.5        1.85338340668862                     5.5                     5.5    -0.00140471046223519   7.13348033320975E-007       -0.01032960702775        25.9197130476253                       0                       0        30.9265510270252   3.10347486339643E-006        1.21556766367321 
      0.137844611528822                     0.5                     0.5        1.87844606202311                     5.5                     5.5    -0.00143164028548224   7.19613649413101E-007    -0.00851463220604648        25.9238381310085                       0                       0         29.599859332476   3.13335187676323E-006         1.2273910577495 
      0.140350877192982                     0.5                     0.5        1.90350871735759                     5.5                     5.5    -0.00145857010872929   7.25879265505228E-007    -0.00669965738434291        25.9279632143916                       0                       0        28.2731676379267   3.16322889013003E-006        1.23921445182579 
      0.142857142857143                     0.5                     0.5        1.92857137269208                     5.5                     5.5    -0.00148549993197634   7.32144881597355E-007    -0.00488468256263935        25.9320882977747                       0                       0        26.9464759433774   3.19310590349683E-006        1.25103784590209 
      0.145363408521303                     0.5                     0.5        1.95363402802656                     5.5                     5.5    -0.00151242975522338   7.38410497689482E-007    -0.00306970774093579        25.9362133811579                       0                       0        25.6197842488282   3.22298291686363E-006        1.26286123997838 
      0.147869674185464                     0.5                     0.5        1.97869668336105                     5.5                     5.5    -0.00153935957847043   7.44676113781609E-007    -0.00125473291923223         25.940338464541                       0                       0        24.2930925542789   3.25285993023043E-006        1.27468463405467 
      0.150375939849624                     0.5                     0.5        2.00375933911567                     5.5                     5.5    -0.00156464845032191   7.48122225969677E-007    0.000288808253517504        25.9438274751975                       0                       0        23.0789739055124    3.2692924997433E-006        1.28532490949539 
      0.152882205513784                     0.5                     0.5        2.02882199725112                     5.5                     5.5    -0.00158063842414896   7.35590851344878E-007    0.000294196724834913        25.9437120065034                       0                       0        22.5027810818848   3.20953846633166E-006        1.28926072094486 
      0.155388471177945                     0.5                     0.5        2.05388465538658                     5.5                     5.5    -0.00159662839797601    7.2305947672008E-007    0.000299585196152323        25.9435965378092                       0                       0        21.9265882582571   3.14978443292003E-006        1.29319653239433 
      0.157894736842105                     0.5                     0.5        2.07894731352203                     5.5                     5.5    -0.00161261837180306   7.10528102095281E-007    0.000304973667469733         25.943481069115                       0                       0        21.3503954346294   3.09003039950839E-006         1.2971323438438 
      0.160401002506266                     0.5                     0.5        2.10400997165749                     5.5                     5.5    -0.00162860834563011   6.97996727470483E-007    0.000310362138787143        25.9433656004209                       0                       0        20.7742026110017   3.03027636609676E-006        1.30106815529327 
      0.162907268170426                     0.5                     0.5        2.12907262979294                     5.5                     5.5    -0.00164459831945716   6.85465352845684E-007    0.000315750610104553        25.9432501317267                       0                       0        20.1980097873741   2.97052233268513E-006        1.30500396674274 
      0.165413533834586                     0.5                     0.5         2.1541352879284                     5.5                     5.5    -0.00166058829328421   6.72933978220886E-007    0.000321139081421963        25.9431346630325                       0                       0        19.6218169637464   2.91076829927349E-006        1.30893977819221 
      0.167919799498747                     0.5                     0.5        2.17919794606385                     5.5                     5.5    -0.00167657826711126   6.60402603596088E-007    0.000326527552739372        25.9430191943384                       0                       0        19.0456241401187   2.85101426586186E-006        1.31287558964168 
      0.170426065162907                     0.5                     0.5        2.20426060419931                     5.5                     5.5    -0.00169256824093831   6.47871228971289E-007    0.000331916024056782        25.9429037256442                       0                       0         18.469431316491   2.79126023245023E-006        1.31681140109115 
      0.172932330827068                     0.5                     0.5        2.22932326233476                     5.5                     5.5    -0.00170855821476536   6.35339854346491E-007    0.000337304495374192        25.9427882569501                       0                       0        17.8932384928633   2.73150619903859E-006        1.32074721254062 
      0.175438596491228                     0.5                     0.5        2.25438592047022                     5.5                     5.5    -0.00172454818859241   6.22808479721692E-007    0.000342692966691602        25.9426727882559                       0                       0        17.3170456692357   2.67175216562696E-006        1.32468302399009 
      0.177944862155388                     0.5                     0.5        2.27944857860567                     5.5                     5.5    -0.00174053816241946   6.10277105096894E-007    0.000348081438009012        25.9425573195617                       0                       0         16.740852845608   2.61199813221533E-006        1.32861883543956 
      0.180451127819549                     0.5                     0.5        2.30451123674113                     5.5                     5.5    -0.00175652813624651   5.97745730472095E-007    0.000353469909326422        25.9424418508676                       0                       0        16.1646600219803   2.55224409880369E-006        1.33255464688903 
      0.182957393483709                     0.5                     0.5        2.32957389487658                     5.5                     5.5    -0.00177251811007356   5.85214355847297E-007    0.000358858380643832        25.9423263821734                       0                       0        15.5884671983526   2.49249006539206E-006         1.3364904583385 
       0.18546365914787                     0.5                     0.5        2.35463655301204                     5.5                     5.5    -0.00178850808390061   5.72682981222499E-007    0.000364246851961241        25.9422109134792                       0                       0        15.0122743747249   2.43273603198042E-006        1.34042626978797 
       0.18796992481203                     0.5                     0.5        2.37969921114749                     5.5                     5.5    -0.00180449805772766     5.601516065977E-007    0.000369635323278651        25.9420954447851                       0                       0        14.4360815510973   2.37298199856879E-006        1.34436208123744 
       0.19047619047619                     0.5                     0.5        2.40476186928295                     5.5                     5.5    -0.00182048803155471   5.47620231972902E-007    0.000375023794596061        25.9419799760909                       0                       0        13.8598887274696   2.31322796515716E-006        1.34829789268691 
      0.192982456140351                     0.5                     0.5         2.4298245274184                     5.5                     5.5    -0.00183647800538176   5.35088857348103E-007    0.000380412265913471        25.9418645073967                       0                       0        13.2836959038419   2.25347393174552E-006        1.35223370413638 
      0.195488721804511                     0.5                     0.5        2.45488718555386                     5.5                     5.5    -0.00185246797920881   5.22557482723305E-007    0.000385800737230881        25.9417490387026                       0                       0        12.7075030802142   2.19371989833389E-006        1.35616951558585 
      0.197994987468672                     0.5                     0.5        2.47994984368931                     5.5                     5.5    -0.00186845795303586   5.10026108098507E-007    0.000391189208548291        25.9416335700084                       0                       0        12.1313102565866   2.13396586492226E-006        1.36010532703532 
      0.200501253132832                     0.5                     0.5        2.50501250182477                     5.5                     5.5    -0.00188444792686292   4.97494733473708E-007      0.0003965776798657        25.9415181013142                       0                       0        11.5551174329589   2.07421183151062E-006        1.36404113848479 
      0.203007518796992                     0.5                     0.5        2.53007515996022                     5.5                     5.5    -0.00190043790068997    4.8496335884891E-007     0.00040196615118311        25.9414026326201                       0                       0        10.9789246093312   2.01445779809899E-006        1.36797694993426 