VARIABLES = "X"
 "Y"
 "Z"
 "I"
 "J"
 "K"
 "U"
 "V"
 "W"
 "T"
 "fu"
 "fv"
 "X Pressure Gradient"
 "Y Pressure Gradient"
 "Z Pressure Gradient"
ZONE
DT=(DOUBLE,DOUBLE,DOUBLE,DOUBLE,DOUBLE,DOUBLE,DOUBLE,DOUBLE,DOUBLE,DOUBLE,DOUBLE,DOUBLE,DOUBLE,DOUBLE,DOUBLE)
                    0.5                     0.5                       0                     5.5                     5.5                       0                       0                       0                       0       -12.5287532806396                       0                       0     -0.0295647960156202     -0.0295647960156202       -5.74990153312683 
                    0.5                     0.5      0.0025062656641604                     5.5                     5.5      0.0501253125362827    -0.00180457391535635    -0.00180457391535635  -5.83709245089227E-005       -12.5714627118546                       0                       0     -0.0297968582563385     -0.0297968583030213       -5.66693482068486 
                    0.5                     0.5      0.0050125313283208                     5.5                     5.5       0.100250625072565    -0.00360914783071269    -0.00360914783071269   -0.000116741849017845       -12.6141721430696                       0                       0     -0.0300289204970568     -0.0300289205904224       -5.58396810824289 
                    0.5                     0.5      0.0075187969924812                     5.5                     5.5       0.150375937608848    -0.00541372174606904    -0.00541372174606904   -0.000175112773526768       -12.6568815742846                       0                       0      -0.030260982737775     -0.0302609828778235       -5.50100139580093 
                    0.5                     0.5      0.0100250626566416                     5.5                     5.5       0.200501250145131    -0.00721829566142538    -0.00721829566142538   -0.000233483698035691       -12.6995910054996                       0                       0     -0.0304930449784933     -0.0304930451652247       -5.41803468335896 
                    0.5                     0.5       0.012531328320802                     5.5                     5.5       0.250626562681413    -0.00902286957678173    -0.00902286957678173   -0.000291854622544614       -12.7423004367146                       0                       0     -0.0307251072192116     -0.0307251074526258       -5.33506797091699 
                    0.5                     0.5      0.0150375939849624                     5.5                     5.5       0.300751875217696     -0.0108274434921381     -0.0108274434921381   -0.000350225547053536       -12.7850098679296                       0                       0     -0.0309571694599299     -0.0309571697400269       -5.25210125847502 
                    0.5                     0.5      0.0175438596491228                     5.5                     5.5       0.350877187753979     -0.0126320174074944     -0.0126320174074944   -0.000408596471562459       -12.8277192991446                       0                       0     -0.0311892317006481      -0.031189232027428       -5.16913454603305 
                    0.5                     0.5      0.0200501253132832                     5.5                     5.5       0.401002500290261     -0.0144365913228508     -0.0144365913228508   -0.000466967396071382       -12.8704287303596                       0                       0     -0.0314212939413664     -0.0314212943148291       -5.08616783359108 
                    0.5                     0.5      0.0225563909774436                     5.5                     5.5       0.451127812826544     -0.0162411652382071     -0.0162411652382071   -0.000525338320580304       -12.9131381615746                       0                       0     -0.0316533561820847     -0.0316533566022302       -5.00320112114911 
                    0.5                     0.5       0.025062656641604                     5.5                     5.5       0.501253125362827     -0.0180457391535635     -0.0180457391535635   -0.000583709245089227       -12.9558475927896                       0                       0     -0.0318854184228029     -0.0318854188896313       -4.92023440870714 
                    0.5                     0.5      0.0275689223057644                     5.5                     5.5       0.551378437899109     -0.0198503130689198     -0.0198503130689198    -0.00064208016959815       -12.9985570240046                       0                       0     -0.0321174806635212     -0.0321174811770324       -4.83726769626517 
                    0.5                     0.5      0.0300751879699248                     5.5                     5.5       0.601503750435392     -0.0216548869842761     -0.0216548869842761   -0.000700451094107073       -13.0412664552196                       0                       0     -0.0323495429042395     -0.0323495434644335       -4.75430098382321 
                    0.5                     0.5      0.0325814536340852                     5.5                     5.5       0.651629062971675     -0.0234594608996325     -0.0234594608996325   -0.000758822018615995       -13.0839758864346                       0                       0     -0.0325816051449577     -0.0325816057518346       -4.67133427138124 
                    0.5                     0.5      0.0350877192982456                     5.5                     5.5       0.701754375507957     -0.0252640348149888     -0.0252640348149888   -0.000817192943124918       -13.1266853176496                       0                       0      -0.032813667385676     -0.0328136680392357       -4.58836755893927 
                    0.5                     0.5       0.037593984962406                     5.5                     5.5        0.75187968804424     -0.0270686087303452     -0.0270686087303452   -0.000875563867633841       -13.1693947488646                       0                       0     -0.0330457296263943     -0.0330457303266368        -4.5054008464973 
                    0.5                     0.5      0.0401002506265664                     5.5                     5.5       0.802005000580523     -0.0288731826457015     -0.0288731826457015   -0.000933934792142764       -13.2121041800796                       0                       0     -0.0332777918671126     -0.0332777926140379       -4.42243413405533 
                    0.5                     0.5      0.0426065162907268                     5.5                     5.5       0.852130313116805     -0.0306777565610579     -0.0306777565610579   -0.000992305716651686       -13.2548136112946                       0                       0     -0.0335098541078308      -0.033509854901439       -4.33946742161336 
                    0.5                     0.5      0.0451127819548872                     5.5                     5.5       0.902255625653088     -0.0324823304764142     -0.0324823304764142    -0.00105067664116061       -13.2975230425096                       0                       0     -0.0337419163485491     -0.0337419171888401       -4.25650070917139 
                    0.5                     0.5      0.0476190476190476                     5.5                     5.5        0.95238093818937     -0.0342869043917706     -0.0342869043917706    -0.00110904756566953       -13.3402324737246                       0                       0     -0.0339739785892674     -0.0339739794762412       -4.17353399672942 
                    0.5                     0.5       0.050125313283208                     5.5                     5.5        1.00125312531614     -0.0359814266444027     -0.0359814266444027    -0.00116499275294127        -13.380819963551                       0                       0     -0.0341808352382559     -0.0341808361684114       -4.09105445037413 
                    0.5                     0.5      0.0526315789473684                     5.5                     5.5        1.02631578065063     -0.0355849542188147     -0.0355849542188147    -0.00117484864425723       -13.3810903146696                       0                       0     -0.0339087826471326     -0.0339087835539467       -4.01783111759559 
                    0.5                     0.5      0.0551378446115288                     5.5                     5.5        1.05137843598511     -0.0351884817932267     -0.0351884817932267    -0.00118470453557319       -13.3813606657881                       0                       0     -0.0336367300560092     -0.0336367309394819       -3.94460778481706 
                    0.5                     0.5      0.0576441102756892                     5.5                     5.5         1.0764410913196     -0.0347920093676386     -0.0347920093676386    -0.00119456042688915       -13.3816310169067                       0                       0     -0.0333646774648859     -0.0333646783250172       -3.87138445203852 
                    0.5                     0.5      0.0601503759398496                     5.5                     5.5        1.10150374665408     -0.0343955369420506     -0.0343955369420506    -0.00120441631820511       -13.3819013680252                       0                       0     -0.0330926248737626     -0.0330926257105524       -3.79816111925998 
                    0.5                     0.5        0.06265664160401                     5.5                     5.5        1.12656640198857     -0.0339990645164626     -0.0339990645164626    -0.00121427220952108       -13.3821717191438                       0                       0     -0.0328205722826393     -0.0328205730960877       -3.72493778648144 
                    0.5                     0.5      0.0651629072681704                     5.5                     5.5        1.15162905732305     -0.0336025920908746     -0.0336025920908746    -0.00122412810083704       -13.3824420702623                       0                       0     -0.0325485196915159      -0.032548520481623        -3.6517144537029 
                    0.5                     0.5      0.0676691729323308                     5.5                     5.5        1.17669171265754     -0.0332061196652865     -0.0332061196652865      -0.001233983992153       -13.3827124213809                       0                       0     -0.0322764671003926     -0.0322764678671582       -3.57849112092436 
                    0.5                     0.5      0.0701754385964912                     5.5                     5.5        1.20175436799202     -0.0328096472396985     -0.0328096472396985    -0.00124383988346896       -13.3829827724994                       0                       0     -0.0320044145092693     -0.0320044152526935       -3.50526778814582 
                    0.5                     0.5      0.0726817042606516                     5.5                     5.5        1.22681702332651     -0.0324131748141105     -0.0324131748141105    -0.00125369577478492        -13.383253123618                       0                       0      -0.031732361918146     -0.0317323626382287       -3.43204445536728 
                    0.5                     0.5       0.075187969924812                     5.5                     5.5        1.25187967866099     -0.0320167023885225     -0.0320167023885225    -0.00126355166610089       -13.3835234747365                       0                       0     -0.0314603093270227      -0.031460310023764       -3.35882112258875 
                    0.5                     0.5      0.0776942355889724                     5.5                     5.5        1.27694233399548     -0.0316202299629344     -0.0316202299629344    -0.00127340755741685       -13.3837938258551                       0                       0     -0.0311882567358993     -0.0311882574092993       -3.28559778981021 
                    0.5                     0.5      0.0802005012531328                     5.5                     5.5        1.30200498932996     -0.0312237575373464     -0.0312237575373464    -0.00128326344873281       -13.3840641769736                       0                       0      -0.030916204144776     -0.0309162047948345       -3.21237445703167 
                    0.5                     0.5      0.0827067669172932                     5.5                     5.5        1.32706764466444     -0.0308272851117584     -0.0308272851117584    -0.00129311934004877       -13.3843345280922                       0                       0     -0.0306441515536527     -0.0306441521803698       -3.13915112425313 
                    0.5                     0.5      0.0852130325814536                     5.5                     5.5        1.35213029999893     -0.0304308126861703     -0.0304308126861703    -0.00130297523136473       -13.3846048792107                       0                       0     -0.0303720989625294      -0.030372099565905       -3.06592779147459 
                    0.5                     0.5       0.087719298245614                     5.5                     5.5        1.37719295533341     -0.0300343402605823     -0.0300343402605823     -0.0013128311226807       -13.3848752303293                       0                       0      -0.030100046371406     -0.0301000469514403       -2.99270445869605 
                    0.5                     0.5      0.0902255639097744                     5.5                     5.5         1.4022556106679     -0.0296378678349943     -0.0296378678349943    -0.00132268701399666       -13.3851455814479                       0                       0     -0.0298279937802827     -0.0298279943369755       -2.91948112591751 
                    0.5                     0.5      0.0927318295739348                     5.5                     5.5        1.42731826600238     -0.0292413954094063     -0.0292413954094063    -0.00133254290531262       -13.3854159325664                       0                       0     -0.0295559411891594     -0.0295559417225108       -2.84625779313897 
                    0.5                     0.5      0.0952380952380952                     5.5                     5.5        1.45238092133687     -0.0288449229838182     -0.0288449229838182    -0.00134239879662858        -13.385686283685                       0                       0     -0.0292838885980361     -0.0292838891080461       -2.77303446036044 
                    0.5                     0.5      0.0977443609022556                     5.5                     5.5        1.47744357667135     -0.0284484505582302     -0.0284484505582302    -0.00135225468794454       -13.3859566348035                       0                       0     -0.0290118360069127     -0.0290118364935813        -2.6998111275819 
                    0.5                     0.5       0.100250626566416                     5.5                     5.5        1.50250623200584     -0.0280519781326422     -0.0280519781326422    -0.00136211057926051       -13.3862269859221                       0                       0     -0.0287397834157894     -0.0287397838791166       -2.62658779480336 
                    0.5                     0.5       0.102756892230576                     5.5                     5.5        1.52756888734032     -0.0276555057070542     -0.0276555057070542    -0.00137196647057647       -13.3864973370406                       0                       0     -0.0284677308246661     -0.0284677312646519       -2.55336446202482 
                    0.5                     0.5       0.105263157894737                     5.5                     5.5        1.55263154267481     -0.0272590332814661     -0.0272590332814661    -0.00138182236189243       -13.3867676881592                       0                       0     -0.0281956782335428     -0.0281956786501871       -2.48014112924628 
                    0.5                     0.5       0.107769423558897                     5.5                     5.5        1.57769419800929     -0.0268625608558781     -0.0268625608558781    -0.00139167825320839       -13.3870380392777                       0                       0     -0.0279236256424194     -0.0279236260357224       -2.40691779646774 
                    0.5                     0.5       0.110275689223058                     5.5                     5.5        1.60275685334378     -0.0264660884302901     -0.0264660884302901    -0.00140153414452435       -13.3873083903963                       0                       0     -0.0276515730512961     -0.0276515734212576        -2.3336944636892 
                    0.5                     0.5       0.112781954887218                     5.5                     5.5        1.62781950867826     -0.0260696160047021     -0.0260696160047021    -0.00141139003584032       -13.3875787415148                       0                       0     -0.0273795204601728     -0.0273795208067929       -2.26047113091067 
                    0.5                     0.5       0.115288220551378                     5.5                     5.5        1.65288216401275      -0.025673143579114      -0.025673143579114    -0.00142124592715628       -13.3878490926334                       0                       0     -0.0271074678690495     -0.0271074681923281       -2.18724779813213 
                    0.5                     0.5       0.117794486215539                     5.5                     5.5        1.67794481934723      -0.025276671153526      -0.025276671153526    -0.00143110181847224       -13.3881194437519                       0                       0     -0.0268354152779261     -0.0268354155778634       -2.11402446535359 
                    0.5                     0.5       0.120300751879699                     5.5                     5.5        1.70300747468171      -0.024880198727938      -0.024880198727938     -0.0014409577097882       -13.3883897948705                       0                       0     -0.0265633626868028     -0.0265633629633987       -2.04080113257505 
                    0.5                     0.5        0.12280701754386                     5.5                     5.5         1.7280701300162     -0.0244837263023499       -0.02448372630235    -0.00145081360110416       -13.3886601459891                       0                       0     -0.0262913100956795     -0.0262913103489339       -1.96757779979651 
                    0.5                     0.5        0.12531328320802                     5.5                     5.5        1.75313278535068     -0.0240872538767619     -0.0240872538767619    -0.00146066949242013       -13.3889304971076                       0                       0     -0.0260192575045562     -0.0260192577344692       -1.89435446701797 
                    0.5                     0.5        0.12781954887218                     5.5                     5.5        1.77819544068517     -0.0236907814511739     -0.0236907814511739    -0.00147052538373609       -13.3892008482262                       0                       0     -0.0257472049134328     -0.0257472051200044       -1.82113113423943 
                    0.5                     0.5       0.130325814536341                     5.5                     5.5        1.80325809601965     -0.0232943090255859     -0.0232943090255859    -0.00148038127505205       -13.3894711993447                       0                       0     -0.0254751523223095     -0.0254751525055397        -1.7479078014609 
                    0.5                     0.5       0.132832080200501                     5.5                     5.5        1.82832075135414     -0.0228978365999978     -0.0228978365999978    -0.00149023716636801       -13.3897415504633                       0                       0     -0.0252030997311862      -0.025203099891075       -1.67468446868236 
                    0.5                     0.5       0.135338345864662                     5.5                     5.5        1.85338340668862     -0.0225013641744098     -0.0225013641744098    -0.00150009305768397       -13.3900119015818                       0                       0     -0.0249310471400629     -0.0249310472766102       -1.60146113590382 
                    0.5                     0.5       0.137844611528822                     5.5                     5.5        1.87844606202311     -0.0221048917488218     -0.0221048917488218    -0.00150994894899994       -13.3902822527004                       0                       0     -0.0246589945489396     -0.0246589946621455       -1.52823780312528 
                    0.5                     0.5       0.140350877192982                     5.5                     5.5        1.90350871735759     -0.0217084193232338     -0.0217084193232338     -0.0015198048403159       -13.3905526038189                       0                       0     -0.0243869419578162     -0.0243869420476807       -1.45501447034674 
                    0.5                     0.5       0.142857142857143                     5.5                     5.5        1.92857137269208     -0.0213119468976457     -0.0213119468976457    -0.00152966073163186       -13.3908229549375                       0                       0     -0.0241148893666929      -0.024114889433216        -1.3817911375682 
                    0.5                     0.5       0.145363408521303                     5.5                     5.5        1.95363402802656     -0.0209154744720577     -0.0209154744720577    -0.00153951662294782        -13.391093306056                       0                       0     -0.0238428367755696     -0.0238428368187513       -1.30856780478966 
                    0.5                     0.5       0.147869674185464                     5.5                     5.5        1.97869668336105     -0.0205190020464697     -0.0205190020464697    -0.00154937251426378       -13.3913636571746                       0                       0     -0.0235707841844463     -0.0235707842042865       -1.23534447201112 
                    0.5                     0.5       0.150375939849624                     5.5                     5.5        2.00375933911567     -0.0201429268512377     -0.0201429268529882     -0.0015519164907411       -13.3915184273058                       0                       0     -0.0232470561876421     -0.0232470561880798        -1.1683300381887 
                    0.5                     0.5       0.152882205513784                     5.5                     5.5        2.02882199725113     -0.0198824381173554     -0.0198824381307767    -0.00151302551025914       -13.3910182262922                       0                       0     -0.0226304954298599     -0.0226304954332152       -1.13650002140178 
                    0.5                     0.5       0.155388471177945                     5.5                     5.5        2.05388465538658     -0.0196219493834731     -0.0196219494085651    -0.00147413452977718       -13.3905180252785                       0                       0     -0.0220139346720777     -0.0220139346783507       -1.10467000461486 
                    0.5                     0.5       0.157894736842105                     5.5                     5.5        2.07894731352203     -0.0193614606495908     -0.0193614606863535    -0.00143524354929522       -13.3900178242648                       0                       0     -0.0213973739142955     -0.0213973739234861       -1.07283998782794 
                    0.5                     0.5       0.160401002506266                     5.5                     5.5        2.10400997165749     -0.0191009719157085     -0.0191009719641419    -0.00139635256881326       -13.3895176232511                       0                       0     -0.0207808131565132     -0.0207808131686216       -1.04100997104103 
                    0.5                     0.5       0.162907268170426                     5.5                     5.5        2.12907262979294     -0.0188404831818262     -0.0188404832419303    -0.00135746158833129       -13.3890174222374                       0                       0      -0.020164252398731     -0.0201642524137571       -1.00917995425411 
                    0.5                     0.5       0.165413533834586                     5.5                     5.5         2.1541352879284     -0.0185799944479439     -0.0185799945197187    -0.00131857060784933       -13.3885172212237                       0                       0     -0.0195476916409488     -0.0195476916588925      -0.977349937467193 
                    0.5                     0.5       0.167919799498747                     5.5                     5.5        2.17919794606385     -0.0183195057140616     -0.0183195057975071    -0.00127967962736737         -13.38801702021                       0                       0     -0.0189311308831666      -0.018931130904028      -0.945519920680276 
                    0.5                     0.5       0.170426065162907                     5.5                     5.5        2.20426060419931     -0.0180590169801793     -0.0180590170752956    -0.00124078864688541       -13.3875168191963                       0                       0     -0.0183145701253844     -0.0183145701491634      -0.913689903893359 
                    0.5                     0.5       0.172932330827068                     5.5                     5.5        2.22932326233476      -0.017798528246297      -0.017798528353084    -0.00120189766640345       -13.3870166181826                       0                       0     -0.0176980093676021     -0.0176980093942989      -0.881859887106442 
                    0.5                     0.5       0.175438596491228                     5.5                     5.5        2.25438592047022     -0.0175380395124147     -0.0175380396308724    -0.00116300668592149        -13.386516417169                       0                       0     -0.0170814486098199     -0.0170814486394343      -0.850029870319524 
                    0.5                     0.5       0.177944862155388                     5.5                     5.5        2.27944857860567     -0.0172775507785324     -0.0172775509086608    -0.00112411570543953       -13.3860162161553                       0                       0     -0.0164648878520377     -0.0164648878845698      -0.818199853532607 
                    0.5                     0.5       0.180451127819549                     5.5                     5.5        2.30451123674113     -0.0170170620446501     -0.0170170621864492    -0.00108522472495756       -13.3855160151416                       0                       0     -0.0158483270942554     -0.0158483271297052       -0.78636983674569 
                    0.5                     0.5       0.182957393483709                     5.5                     5.5        2.32957389487658     -0.0167565733107678     -0.0167565734642376     -0.0010463337444756       -13.3850158141279                       0                       0     -0.0152317663364732     -0.0152317663748407      -0.754539819958773 
                    0.5                     0.5        0.18546365914787                     5.5                     5.5        2.35463655301204     -0.0164960845768855      -0.016496084742026    -0.00100744276399364       -13.3845156131142                       0                       0      -0.014615205578691     -0.0146152056199761      -0.722709803171856 
                    0.5                     0.5        0.18796992481203                     5.5                     5.5        2.37969921114749     -0.0162355958430032     -0.0162355960198145   -0.000968551783511679       -13.3840154121005                       0                       0     -0.0139986448209088     -0.0139986448651116      -0.690879786384938 
                    0.5                     0.5        0.19047619047619                     5.5                     5.5        2.40476186928295     -0.0159751071091209     -0.0159751072976029   -0.000929660803029717       -13.3835152110868                       0                       0     -0.0133820840631265      -0.013382084110247      -0.659049769598021 
                    0.5                     0.5       0.192982456140351                     5.5                     5.5         2.4298245274184     -0.0157146183752386     -0.0157146185753913   -0.000890769822547756       -13.3830150100731                       0                       0     -0.0127655233053443     -0.0127655233553825      -0.627219752811104 
                    0.5                     0.5       0.195488721804511                     5.5                     5.5        2.45488718555386     -0.0154541296413563     -0.0154541298531797   -0.000851878842065794       -13.3825148090594                       0                       0     -0.0121489625475621     -0.0121489626005179      -0.595389736024187 
                    0.5                     0.5       0.197994987468672                     5.5                     5.5        2.47994984368931      -0.015193640907474     -0.0151936411309681   -0.000812987861583833       -13.3820146080458                       0                       0     -0.0115324017897799     -0.0115324018456534       -0.56355971923727 
                    0.5                     0.5       0.200501253132832                     5.5                     5.5        2.50501250182477     -0.0149331521735918     -0.0149331524087565   -0.000774096881101871       -13.3815144070321                       0                       0     -0.0109158410319976     -0.0109158410907888      -0.531729702450352 
                    0.5                     0.5       0.203007518796992                     5.5                     5.5        2.53007515996022     -0.0146726634397095     -0.0146726636865449   -0.000735205900619909       -13.3810142060184                       0                       0     -0.0102992802742154     -0.0102992803359243      -0.499899685663435 