VARIABLES = "X"
 "Y"
 "Z"
 "I"
 "J"
 "K"
 "U"
 "V"
 "W"
 "T"
 "fu"
 "fv"
 "X Pressure Gradient"
 "Y Pressure Gradient"
 "Z Pressure Gradient"
ZONE
DT=(DOUBLE,DOUBLE,DOUBLE,DOUBLE,DOUBLE,DOUBLE,DOUBLE,DOUBLE,DOUBLE,DOUBLE,DOUBLE,DOUBLE,DOUBLE,DOUBLE,DOUBLE)
                      0                     0.5                     0.5                       0                     5.5                     5.5                       0                       0                       0       -13.4261837005615                       0                       0       0.416166767477989     -0.0179389100521803    -0.00702172494493425 
     0.0025062656641604                     0.5                     0.5      0.0501253125362827                     5.5                     5.5   7.17919784751639E-005  -5.48245593611347E-005     0.00212404752406952       -13.4222535585688                       0                       0       0.408961224820195     -0.0182040685090057    -0.00657496650588203 
     0.0050125313283208                     0.5                     0.5       0.100250625072565                     5.5                     5.5    0.000143583956950328   -0.000109649118722269     0.00424809504813905       -13.4183234165761                       0                       0         0.4017556821624     -0.0184692269658312    -0.00612820806682981 
     0.0075187969924812                     0.5                     0.5       0.150375937608848                     5.5                     5.5    0.000215375935425492   -0.000164473678083404     0.00637214257220857       -13.4143932745833                       0                       0       0.394550139504605     -0.0187343854226566    -0.00568144962777759 
     0.0100250626566416                     0.5                     0.5       0.200501250145131                     5.5                     5.5    0.000287167913900656   -0.000219298237444539     0.00849619009627809       -13.4104631325906                       0                       0        0.38734459684681     -0.0189995438794821    -0.00523469118872537 
      0.012531328320802                     0.5                     0.5       0.250626562681413                     5.5                     5.5     0.00035895989237582   -0.000274122796805674      0.0106202376203476       -13.4065329905979                       0                       0       0.380139054189016     -0.0192647023363075    -0.00478793274967315 
     0.0150375939849624                     0.5                     0.5       0.300751875217696                     5.5                     5.5    0.000430751870850984   -0.000328947356166808      0.0127442851444171       -13.4026028486051                       0                       0       0.372933511531221     -0.0195298607931329    -0.00434117431062093 
     0.0175438596491228                     0.5                     0.5       0.350877187753979                     5.5                     5.5    0.000502543849326147   -0.000383771915527943      0.0148683326684867       -13.3986727066124                       0                       0       0.365727968873426     -0.0197950192499584    -0.00389441587156871 
     0.0200501253132832                     0.5                     0.5       0.401002500290261                     5.5                     5.5    0.000574335827801311   -0.000438596474889078      0.0169923801925562       -13.3947425646197                       0                       0       0.358522426215632     -0.0200601777067838    -0.00344765743251649 
     0.0225563909774436                     0.5                     0.5       0.451127812826544                     5.5                     5.5    0.000646127806276475   -0.000493421034250213      0.0191164277166257       -13.3908124226269                       0                       0       0.351316883557837     -0.0203253361636092    -0.00300089899346427 
      0.025062656641604                     0.5                     0.5       0.501253125362827                     5.5                     5.5    0.000717919784751639   -0.000548245593611347      0.0212404752406952       -13.3868822806342                       0                       0       0.344111340900042     -0.0205904946204347    -0.00255414055441205 
     0.0275689223057644                     0.5                     0.5       0.551378437899109                     5.5                     5.5    0.000789711763226803   -0.000603070152972482      0.0233645227647648       -13.3829521386415                       0                       0       0.336905798242248     -0.0208556530772601    -0.00210738211535983 
     0.0300751879699248                     0.5                     0.5       0.601503750435392                     5.5                     5.5    0.000861503741701967   -0.000657894712333617      0.0254885702888343       -13.3790219966487                       0                       0       0.329700255584453     -0.0211208115340856    -0.00166062367630761 
     0.0325814536340852                     0.5                     0.5       0.651629062971675                     5.5                     5.5    0.000933295720177131   -0.000712719271694752      0.0276126178129038        -13.375091854656                       0                       0       0.322494712926658      -0.021385969990911    -0.00121386523725539 
     0.0350877192982456                     0.5                     0.5       0.701754375507957                     5.5                     5.5     0.00100508769865229   -0.000767543831055886      0.0297366653369733       -13.3711617126633                       0                       0       0.315289170268864     -0.0216511284477364   -0.000767106798203168 
      0.037593984962406                     0.5                     0.5        0.75187968804424                     5.5                     5.5     0.00107687967712746   -0.000822368390417021      0.0318607128610428       -13.3672315706705                       0                       0       0.308083627611069     -0.0219162869045619   -0.000320348359150948 
     0.0401002506265664                     0.5                     0.5       0.802005000580523                     5.5                     5.5     0.00114867165560262   -0.000877192949778156      0.0339847603851124       -13.3633014286778                       0                       0       0.300878084953274     -0.0221814453613873    0.000126410079901272 
     0.0426065162907268                     0.5                     0.5       0.852130313116805                     5.5                     5.5     0.00122046363407779    -0.00093201750913929      0.0361088079091819       -13.3593712866851                       0                       0        0.29367254229548     -0.0224466038182128    0.000573168518953492 
     0.0451127819548872                     0.5                     0.5       0.902255625653088                     5.5                     5.5     0.00129225561255295   -0.000986842068500425      0.0382328554332514       -13.3554411446924                       0                       0       0.286466999637685     -0.0227117622750382     0.00101992695800571 
     0.0476190476190476                     0.5                     0.5        0.95238093818937                     5.5                     5.5     0.00136404759102811    -0.00104166662786156      0.0403569029573209       -13.3515110026996                       0                       0        0.27926145697989     -0.0229769207318636     0.00146668539705793 
      0.050125313283208                     0.5                     0.5        1.00125312531614                     5.5                     5.5     0.00143402097122921     -0.0010847002177119      0.0423421853373068       -13.3477985086822                       0                       0       0.272128868673706     -0.0232242227417981     0.00191343001786148 
     0.0526315789473684                     0.5                     0.5        1.02631578065063                     5.5                     5.5     0.00146944076796994   -0.000903703984769647      0.0416909134788652        -13.348221352077                       0                       0       0.266382421723272     -0.0231322501374579     0.00235991209029714 
     0.0551378446115288                     0.5                     0.5        1.05137843598511                     5.5                     5.5     0.00150486056471066   -0.000722707751827396      0.0410396416204236       -13.3486441954718                       0                       0       0.260635974772838     -0.0230402775331177      0.0028063941627328 
     0.0576441102756892                     0.5                     0.5         1.0764410913196                     5.5                     5.5     0.00154028036145139   -0.000541711518885144       0.040388369761982       -13.3490670388666                       0                       0       0.254889527822403     -0.0229483049287775     0.00325287623516845 
     0.0601503759398496                     0.5                     0.5        1.10150374665408                     5.5                     5.5     0.00157570015819211   -0.000360715285942893      0.0397370979035403       -13.3494898822613                       0                       0       0.249143080871969     -0.0228563323244373     0.00369935830760411 
       0.06265664160401                     0.5                     0.5        1.12656640198857                     5.5                     5.5     0.00161111995493284   -0.000179719053000642      0.0390858260450987       -13.3499127256561                       0                       0       0.243396633921534     -0.0227643597200971     0.00414584038003977 
     0.0651629072681704                     0.5                     0.5        1.15162905732305                     5.5                     5.5     0.00164653975167356    1.2771799416094E-006      0.0384345541866571       -13.3503355690509                       0                       0         0.2376501869711     -0.0226723871157569     0.00459232245247542 
     0.0676691729323308                     0.5                     0.5        1.17669171265754                     5.5                     5.5     0.00168195954841429    0.000182273412883861      0.0377832823282155       -13.3507584124457                       0                       0       0.231903740020666     -0.0225804145114167     0.00503880452491108 
     0.0701754385964912                     0.5                     0.5        1.20175436799202                     5.5                     5.5     0.00171737934515501    0.000363269645826112      0.0371320104697739       -13.3511812558404                       0                       0       0.226157293070231     -0.0224884419070766     0.00548528659734674 
     0.0726817042606516                     0.5                     0.5        1.22681702332651                     5.5                     5.5     0.00175279914189574    0.000544265878768363      0.0364807386113323       -13.3516040992352                       0                       0       0.220410846119797     -0.0223964693027364     0.00593176866978239 
      0.075187969924812                     0.5                     0.5        1.25187967866099                     5.5                     5.5     0.00178821893863646    0.000725262111710615      0.0358294667528907         -13.35202694263                       0                       0       0.214664399169362     -0.0223044966983962     0.00637825074221805 
     0.0776942355889724                     0.5                     0.5        1.27694233399548                     5.5                     5.5     0.00182363873537719    0.000906258344652866      0.0351781948944491       -13.3524497860248                       0                       0       0.208917952218928      -0.022212524094056     0.00682473281465371 
     0.0802005012531328                     0.5                     0.5        1.30200498932996                     5.5                     5.5     0.00185905853211791     0.00108725457759512      0.0345269230360075       -13.3528726294196                       0                       0       0.203171505268494     -0.0221205514897158     0.00727121488708936 
     0.0827067669172932                     0.5                     0.5        1.32706764466444                     5.5                     5.5     0.00189447832885864     0.00126825081053737      0.0338756511775659       -13.3532954728143                       0                       0       0.197425058318059     -0.0220285788853756     0.00771769695952502 
     0.0852130325814536                     0.5                     0.5        1.35213029999893                     5.5                     5.5     0.00192989812559936     0.00144924704347962      0.0332243793191243       -13.3537183162091                       0                       0       0.191678611367625     -0.0219366062810354     0.00816417903196068 
      0.087719298245614                     0.5                     0.5        1.37719295533341                     5.5                     5.5     0.00196531792234009     0.00163024327642187      0.0325731074606827       -13.3541411596039                       0                       0        0.18593216441719     -0.0218446336766952     0.00861066110439634 
     0.0902255639097744                     0.5                     0.5         1.4022556106679                     5.5                     5.5     0.00200073771908081     0.00181123950936412      0.0319218356022411       -13.3545640029987                       0                       0       0.180185717466756      -0.021752661072355     0.00905714317683199 
     0.0927318295739348                     0.5                     0.5        1.42731826600238                     5.5                     5.5     0.00203615751582154     0.00199223574230637      0.0312705637437994       -13.3549868463934                       0                       0       0.174439270516322     -0.0216606884680148     0.00950362524926765 
     0.0952380952380952                     0.5                     0.5        1.45238092133687                     5.5                     5.5     0.00207157731256226     0.00217323197524862      0.0306192918853578       -13.3554096897882                       0                       0       0.168692823565887     -0.0215687158636746      0.0099501073217033 
     0.0977443609022556                     0.5                     0.5        1.47744357667135                     5.5                     5.5     0.00210699710930299     0.00235422820819088      0.0299680200269162        -13.355832533183                       0                       0       0.162946376615453     -0.0214767432593345       0.010396589394139 
      0.100250626566416                     0.5                     0.5        1.50250623200584                     5.5                     5.5     0.00214241690604371     0.00253522444113313      0.0293167481684746       -13.3562553765778                       0                       0       0.157199929665018     -0.0213847706549943      0.0108430714665746 
      0.102756892230576                     0.5                     0.5        1.52756888734032                     5.5                     5.5     0.00217783670278444     0.00271622067407538       0.028665476310033       -13.3566782199726                       0                       0       0.151453482714584     -0.0212927980506541      0.0112895535390103 
      0.105263157894737                     0.5                     0.5        1.55263154267481                     5.5                     5.5     0.00221325649952516     0.00289721690701763      0.0280142044515914       -13.3571010633673                       0                       0        0.14570703576415     -0.0212008254463139      0.0117360356114459 
      0.107769423558897                     0.5                     0.5        1.57769419800929                     5.5                     5.5     0.00224867629626589     0.00307821313995988      0.0273629325931498       -13.3575239067621                       0                       0       0.139960588813715     -0.0211088528419737      0.0121825176838816 
      0.110275689223058                     0.5                     0.5        1.60275685334378                     5.5                     5.5     0.00228409609300661     0.00325920937290213      0.0267116607347082       -13.3579467501569                       0                       0       0.134214141863281     -0.0210168802376335      0.0126289997563172 
      0.112781954887218                     0.5                     0.5        1.62781950867826                     5.5                     5.5     0.00231951588974734     0.00344020560584438      0.0260603888762666       -13.3583695935517                       0                       0       0.128467694912846     -0.0209249076332933      0.0130754818287529 
      0.115288220551378                     0.5                     0.5        1.65288216401275                     5.5                     5.5     0.00235493568648806     0.00362120183878664       0.025409117017825       -13.3587924369464                       0                       0       0.122721247962412     -0.0208329350289531      0.0135219639011886 
      0.117794486215539                     0.5                     0.5        1.67794481934723                     5.5                     5.5     0.00239035548322879     0.00380219807172889      0.0247578451593834       -13.3592152803412                       0                       0       0.116974801011978     -0.0207409624246129      0.0139684459736242 
      0.120300751879699                     0.5                     0.5        1.70300747468171                     5.5                     5.5     0.00242577527996951     0.00398319430467114      0.0241065733009418        -13.359638123736                       0                       0       0.111228354061543     -0.0206489898202727      0.0144149280460599 
       0.12280701754386                     0.5                     0.5         1.7280701300162                     5.5                     5.5     0.00246119507671024     0.00416419053761339      0.0234553014425002       -13.3600609671308                       0                       0       0.105481907111109     -0.0205570172159326      0.0148614101184955 
       0.12531328320802                     0.5                     0.5        1.75313278535068                     5.5                     5.5     0.00249661487345096     0.00434518677055564      0.0228040295840585       -13.3604838105255                       0                       0      0.0997354601606744     -0.0204650446115924      0.0153078921909312 
       0.12781954887218                     0.5                     0.5        1.77819544068517                     5.5                     5.5     0.00253203467019169     0.00452618300349789      0.0221527577256169       -13.3609066539203                       0                       0        0.09398901321024     -0.0203730720072522      0.0157543742633668 
      0.130325814536341                     0.5                     0.5        1.80325809601965                     5.5                     5.5     0.00256745446693241     0.00470717923644014      0.0215014858671753       -13.3613294973151                       0                       0      0.0882425662598056      -0.020281099402912      0.0162008563358025 
      0.132832080200501                     0.5                     0.5        1.82832075135414                     5.5                     5.5     0.00260287426367314     0.00488817546938239      0.0208502140087337       -13.3617523407099                       0                       0      0.0824961193093712     -0.0201891267985718      0.0166473384082382 
      0.135338345864662                     0.5                     0.5        1.85338340668862                     5.5                     5.5     0.00263829406041386     0.00506917170232465      0.0201989421502921       -13.3621751841047                       0                       0      0.0767496723589368     -0.0200971541942316      0.0170938204806738 
      0.137844611528822                     0.5                     0.5        1.87844606202311                     5.5                     5.5     0.00267371385715459      0.0052501679352669      0.0195476702918505       -13.3625980274994                       0                       0      0.0710032254085024     -0.0200051815898914      0.0175403025531095 
      0.140350877192982                     0.5                     0.5        1.90350871735759                     5.5                     5.5     0.00270913365389531     0.00543116416820915      0.0188963984334089       -13.3630208708942                       0                       0       0.065256778458068     -0.0199132089855512      0.0179867846255451 
      0.142857142857143                     0.5                     0.5        1.92857137269208                     5.5                     5.5     0.00274455345063604      0.0056121604011514      0.0182451265749673        -13.363443714289                       0                       0      0.0595103315076336      -0.019821236381211      0.0184332666979808 
      0.145363408521303                     0.5                     0.5        1.95363402802656                     5.5                     5.5     0.00277997324737676     0.00579315663409365      0.0175938547165257       -13.3638665576838                       0                       0      0.0537638845571992     -0.0197292637768708      0.0188797487704164 
      0.147869674185464                     0.5                     0.5        1.97869668336105                     5.5                     5.5     0.00281539304411749      0.0059741528670359      0.0169425828580841       -13.3642894010785                       0                       0      0.0480174376067648     -0.0196372911725307      0.0193262308428521 
      0.150375939849624                     0.5                     0.5        2.00375933911567                     5.5                     5.5     0.00284613152520625     0.00613234777058062      0.0163515985625994       -13.3646506474142                       0                       0      0.0429089555107508     -0.0194960334748224      0.0197143399486074 
      0.152882205513784                     0.5                     0.5        2.02882199725113                     5.5                     5.5      0.0028503420561161     0.00616133273075893      0.0161022501629678        -13.364662837237                       0                       0      0.0414156750230406     -0.0190754883718989      0.0197716627397846 
      0.155388471177945                     0.5                     0.5        2.05388465538658                     5.5                     5.5     0.00285455258702595     0.00619031769093724      0.0158529017633361       -13.3646750270598                       0                       0      0.0399223945353304     -0.0186549432689755      0.0198289855309618 
      0.157894736842105                     0.5                     0.5        2.07894731352203                     5.5                     5.5     0.00285876311793579     0.00621930265111555      0.0156035533637044       -13.3646872168826                       0                       0      0.0384291140476202      -0.018234398166052       0.019886308322139 
      0.160401002506266                     0.5                     0.5        2.10400997165749                     5.5                     5.5     0.00286297364884564     0.00624828761129386      0.0153542049640728       -13.3646994067054                       0                       0        0.03693583355991     -0.0178138530631285      0.0199436311133162 
      0.162907268170426                     0.5                     0.5        2.12907262979294                     5.5                     5.5     0.00286718417975549     0.00627727257147217      0.0151048565644411       -13.3647115965282                       0                       0      0.0354425530721998     -0.0173933079602051      0.0200009539044934 
      0.165413533834586                     0.5                     0.5         2.1541352879284                     5.5                     5.5     0.00287139471066534     0.00630625753165048      0.0148555081648094       -13.3647237863511                       0                       0      0.0339492725844896     -0.0169727628572816      0.0200582766956706 
      0.167919799498747                     0.5                     0.5        2.17919794606385                     5.5                     5.5     0.00287560524157518     0.00633524249182879      0.0146061597651778       -13.3647359761739                       0                       0      0.0324559920967793     -0.0165522177543581      0.0201155994868478 
      0.170426065162907                     0.5                     0.5        2.20426060419931                     5.5                     5.5     0.00287981577248503      0.0063642274520071      0.0143568113655461       -13.3647481659967                       0                       0      0.0309627116090691     -0.0161316726514346       0.020172922278025 
      0.172932330827068                     0.5                     0.5        2.22932326233476                     5.5                     5.5     0.00288402630339488     0.00639321241218541      0.0141074629659145       -13.3647603558195                       0                       0      0.0294694311213589     -0.0157111275485112      0.0202302450692022 
      0.175438596491228                     0.5                     0.5        2.25438592047022                     5.5                     5.5     0.00288823683430473     0.00642219737236372      0.0138581145662828       -13.3647725456423                       0                       0      0.0279761506336487     -0.0152905824455877      0.0202875678603794 
      0.177944862155388                     0.5                     0.5        2.27944857860567                     5.5                     5.5     0.00289244736521457     0.00645118233254203      0.0136087661666511       -13.3647847354651                       0                       0      0.0264828701459385     -0.0148700373426642      0.0203448906515566 
      0.180451127819549                     0.5                     0.5        2.30451123674113                     5.5                     5.5     0.00289665789612442     0.00648016729272034      0.0133594177670195        -13.364796925288                       0                       0      0.0249895896582283     -0.0144494922397407      0.0204022134427338 
      0.182957393483709                     0.5                     0.5        2.32957389487658                     5.5                     5.5     0.00290086842703427     0.00650915225289865      0.0131100693673878       -13.3648091151108                       0                       0      0.0234963091705181     -0.0140289471368173       0.020459536233911 
       0.18546365914787                     0.5                     0.5        2.35463655301204                     5.5                     5.5     0.00290507895794412     0.00653813721307696      0.0128607209677561       -13.3648213049336                       0                       0      0.0220030286828079     -0.0136084020338938      0.0205168590250882 
       0.18796992481203                     0.5                     0.5        2.37969921114749                     5.5                     5.5     0.00290928948885396     0.00656712217325527      0.0126113725681245       -13.3648334947564                       0                       0      0.0205097481950977     -0.0131878569309703      0.0205741818162654 
       0.19047619047619                     0.5                     0.5        2.40476186928295                     5.5                     5.5     0.00291350001976381     0.00659610713343358      0.0123620241684928       -13.3648456845792                       0                       0      0.0190164677073874     -0.0127673118280468      0.0206315046074426 
      0.192982456140351                     0.5                     0.5         2.4298245274184                     5.5                     5.5     0.00291771055067366     0.00662509209361189      0.0121126757688612        -13.364857874402                       0                       0      0.0175231872196772     -0.0123467667251234      0.0206888273986198 
      0.195488721804511                     0.5                     0.5        2.45488718555386                     5.5                     5.5     0.00292192108158351      0.0066540770537902      0.0118633273692295       -13.3648700642248                       0                       0       0.016029906731967     -0.0119262216221999       0.020746150189797 
      0.197994987468672                     0.5                     0.5        2.47994984368931                     5.5                     5.5     0.00292613161249335     0.00668306201396851      0.0116139789695978       -13.3648822540477                       0                       0      0.0145366262442568     -0.0115056765192764      0.0208034729809742 
      0.200501253132832                     0.5                     0.5        2.50501250182477                     5.5                     5.5      0.0029303421434032     0.00671204697414682      0.0113646305699662       -13.3648944438705                       0                       0      0.0130433457565466      -0.011085131416353      0.0208607957721514 
      0.203007518796992                     0.5                     0.5        2.53007515996022                     5.5                     5.5     0.00293455267431305     0.00674103193432513      0.0111152821703345       -13.3649066336933                       0                       0      0.0115500652688364     -0.0106645863134295      0.0209181185633286 