VARIABLES = "X"
 "Y"
 "Z"
 "I"
 "J"
 "K"
 "U"
 "V"
 "W"
 "T"
 "fu"
 "fv"
 "X Pressure Gradient"
 "Y Pressure Gradient"
 "Z Pressure Gradient"
ZONE
DT=(DOUBLE,DOUBLE,DOUBLE,DOUBLE,DOUBLE,DOUBLE,DOUBLE,DOUBLE,DOUBLE,DOUBLE,DOUBLE,DOUBLE,DOUBLE,DOUBLE,DOUBLE)
                      0                     0.5                     0.5                       0                     5.5                     5.5                       0                       0                       0       -13.4261837005615                       0                       0       0.416166752576828     -0.0179389100521803    -0.00702172471210361 
     0.0025062656641604                     0.5                     0.5      0.0501253125362827                     5.5                     5.5   7.17919828516798E-005  -5.48245593611348E-005     0.00212404752406953       -13.4222535585688                       0                       0       0.408961210665959     -0.0182040685556886    -0.00657496628472209 
     0.0050125313283208                     0.5                     0.5       0.100250625072565                     5.5                     5.5     0.00014358396570336    -0.00010964911872227     0.00424809504813905       -13.4183234165761                       0                       0       0.401755668755089     -0.0184692270591968    -0.00612820785734058 
     0.0075187969924812                     0.5                     0.5       0.150375937608848                     5.5                     5.5    0.000215375948555039   -0.000164473678083404     0.00637214257220857       -13.4143932745833                       0                       0        0.39455012684422     -0.0187343855627051    -0.00568144942995907 
     0.0100250626566416                     0.5                     0.5       0.200501250145131                     5.5                     5.5    0.000287167931406719   -0.000219298237444539     0.00849619009627809       -13.4104631325906                       0                       0       0.387344584933351     -0.0189995440662134    -0.00523469100257756 
      0.012531328320802                     0.5                     0.5       0.250626562681413                     5.5                     5.5    0.000358959914258399   -0.000274122796805674      0.0106202376203476       -13.4065329905979                       0                       0       0.380139043022481     -0.0192647025697217    -0.00478793257519605 
     0.0150375939849624                     0.5                     0.5       0.300751875217696                     5.5                     5.5    0.000430751897110078   -0.000328947356166808      0.0127442851444171       -13.4026028486051                       0                       0       0.372933501111612     -0.0195298610732299    -0.00434117414781454 
     0.0175438596491228                     0.5                     0.5       0.350877187753979                     5.5                     5.5    0.000502543879961758   -0.000383771915527943      0.0148683326684867       -13.3986727066124                       0                       0       0.365727959200743     -0.0197950195767382    -0.00389441572043303 
     0.0200501253132832                     0.5                     0.5       0.401002500290261                     5.5                     5.5    0.000574335862813438   -0.000438596474889078      0.0169923801925562       -13.3947425646197                       0                       0       0.358522417289873     -0.0200601780802465    -0.00344765729305151 
     0.0225563909774436                     0.5                     0.5       0.451127812826544                     5.5                     5.5    0.000646127845665117   -0.000493421034250213      0.0191164277166257       -13.3908124226269                       0                       0       0.351316875379004     -0.0203253365837548       -0.00300089886567 
      0.025062656641604                     0.5                     0.5       0.501253125362827                     5.5                     5.5    0.000717919828516797   -0.000548245593611347      0.0212404752406952       -13.3868822806342                       0                       0       0.344111333468135      -0.020590495087263    -0.00255414043828849 
     0.0275689223057644                     0.5                     0.5       0.551378437899109                     5.5                     5.5    0.000789711811368477   -0.000603070152972482      0.0233645227647648       -13.3829521386415                       0                       0       0.336905791557266     -0.0208556535907713    -0.00210738201090698 
     0.0300751879699248                     0.5                     0.5       0.601503750435392                     5.5                     5.5    0.000861503794220157   -0.000657894712333617      0.0254885702888343       -13.3790219966487                       0                       0       0.329700249646396     -0.0211208120942796    -0.00166062358352547 
     0.0325814536340852                     0.5                     0.5       0.651629062971675                     5.5                     5.5    0.000933295777071836   -0.000712719271694752      0.0276126178129038        -13.375091854656                       0                       0       0.322494707735527     -0.0213859705977879    -0.00121386515614396 
     0.0350877192982456                     0.5                     0.5       0.701754375507957                     5.5                     5.5     0.00100508775992352   -0.000767543831055886      0.0297366653369733       -13.3711617126633                       0                       0       0.315289165824658     -0.0216511291012961   -0.000767106728762448 
      0.037593984962406                     0.5                     0.5        0.75187968804424                     5.5                     5.5      0.0010768797427752   -0.000822368390417021      0.0318607128610428       -13.3672315706705                       0                       0       0.308083623913788     -0.0219162876048044   -0.000320348301380936 
     0.0401002506265664                     0.5                     0.5       0.802005000580522                     5.5                     5.5     0.00114867172562688   -0.000877192949778156      0.0339847603851124       -13.3633014286778                       0                       0       0.300878082002919     -0.0221814461083127    0.000126410126000575 
     0.0426065162907268                     0.5                     0.5       0.852130313116805                     5.5                     5.5     0.00122046370847856    -0.00093201750913929      0.0361088079091819       -13.3593712866851                       0                       0        0.29367254009205      -0.022446604611821    0.000573168553382086 
     0.0451127819548872                     0.5                     0.5       0.902255625653088                     5.5                     5.5     0.00129225569133023   -0.000986842068500425      0.0382328554332514       -13.3554411446924                       0                       0        0.28646699818118     -0.0227117631153292      0.0010199269807636 
     0.0476190476190476                     0.5                     0.5        0.95238093818937                     5.5                     5.5     0.00136404767418191    -0.00104166662786156      0.0403569029573209       -13.3515110026996                       0                       0       0.279261456270311     -0.0229769216188375     0.00146668540814511 
      0.050125313283208                     0.5                     0.5        1.00125312531614                     5.5                     5.5     0.00143402105857717     -0.0010847002177119      0.0423421853361397       -13.3477985086822                       0                       0       0.272128868671372     -0.0232242236719536     0.00191343001786148 
     0.0526315789473684                     0.5                     0.5        1.02631578065063                     5.5                     5.5     0.00146944085604732   -0.000903703984769647      0.0416909134543567        -13.348221352077                       0                       0       0.266382421674255      -0.023132251044272     0.00235991209029714 
     0.0551378446115288                     0.5                     0.5        1.05137843598511                     5.5                     5.5     0.00150486065351746   -0.000722707751827395      0.0410396415725737       -13.3486441954718                       0                       0       0.260635974677138     -0.0230402784165904      0.0028063941627328 
     0.0576441102756892                     0.5                     0.5         1.0764410913196                     5.5                     5.5     0.00154028045098761   -0.000541711518885145      0.0403883696907906       -13.3490670388666                       0                       0       0.254889527680021     -0.0229483057889088     0.00325287623516845 
     0.0601503759398496                     0.5                     0.5        1.10150374665408                     5.5                     5.5     0.00157570024845775   -0.000360715285942893      0.0397370978090076       -13.3494898822613                       0                       0       0.249143080682903     -0.0228563331612272     0.00369935830760411 
       0.06265664160401                     0.5                     0.5        1.12656640198857                     5.5                     5.5      0.0016111200459279   -0.000179719053000642      0.0390858259272246       -13.3499127256561                       0                       0       0.243396633685786     -0.0227643605335455     0.00414584038003977 
     0.0651629072681704                     0.5                     0.5        1.15162905732305                     5.5                     5.5     0.00164653984339804   1.27717994160897E-006      0.0384345540454416       -13.3503355690509                       0                       0       0.237650186688669     -0.0226723879058639     0.00459232245247542 
     0.0676691729323308                     0.5                     0.5        1.17669171265754                     5.5                     5.5     0.00168195964086818    0.000182273412883861      0.0377832821636585       -13.3507584124457                       0                       0       0.231903739691552     -0.0225804152781823     0.00503880452491108 
     0.0701754385964912                     0.5                     0.5        1.20175436799202                     5.5                     5.5     0.00171737943833833    0.000363269645826112      0.0371320102818755       -13.3511812558404                       0                       0       0.226157292694434     -0.0224884426505007     0.00548528659734674 
     0.0726817042606516                     0.5                     0.5        1.22681702332651                     5.5                     5.5     0.00175279923580847    0.000544265878768363      0.0364807384000925       -13.3516040992352                       0                       0       0.220410845697317     -0.0223964700228191     0.00593176866978239 
      0.075187969924812                     0.5                     0.5        1.25187967866099                     5.5                     5.5     0.00178821903327862    0.000725262111710615      0.0358294665183095         -13.35202694263                       0                       0         0.2146643987002     -0.0223044973951375     0.00637825074221805 
     0.0776942355889724                     0.5                     0.5        1.27694233399548                     5.5                     5.5     0.00182363883074876    0.000906258344652866      0.0351781946365264       -13.3524497860248                       0                       0       0.208917951703083     -0.0222125247674559     0.00682473281465371 
     0.0802005012531328                     0.5                     0.5        1.30200498932996                     5.5                     5.5     0.00185905862821891     0.00108725457759512      0.0345269227547434       -13.3528726294196                       0                       0       0.203171504705965     -0.0221205521397743     0.00727121488708936 
     0.0827067669172932                     0.5                     0.5        1.32706764466444                     5.5                     5.5     0.00189447842568905     0.00126825081053737      0.0338756508729604       -13.3532954728143                       0                       0       0.197425057708848     -0.0220285795120927     0.00771769695952502 
     0.0852130325814536                     0.5                     0.5        1.35213029999893                     5.5                     5.5     0.00192989822315919     0.00144924704347962      0.0332243789911774       -13.3537183162091                       0                       0       0.191678610711731     -0.0219366068844111     0.00816417903196068 
      0.087719298245614                     0.5                     0.5        1.37719295533341                     5.5                     5.5     0.00196531802062934     0.00163024327642187      0.0325731071093943       -13.3541411596039                       0                       0       0.185932163714614     -0.0218446342567295     0.00861066110439633 
     0.0902255639097744                     0.5                     0.5         1.4022556106679                     5.5                     5.5     0.00200073781809948     0.00181123950936412      0.0319218352276113       -13.3545640029987                       0                       0       0.180185716717497     -0.0217526616290479     0.00905714317683199 
     0.0927318295739348                     0.5                     0.5        1.42731826600238                     5.5                     5.5     0.00203615761556963     0.00199223574230637      0.0312705633458283       -13.3549868463934                       0                       0       0.174439269720379     -0.0216606890013663     0.00950362524926765 
     0.0952380952380952                     0.5                     0.5        1.45238092133687                     5.5                     5.5     0.00207157741303977     0.00217323197524862      0.0306192914640453       -13.3554096897882                       0                       0       0.168692822723262     -0.0215687163736847     0.00995010732170331 
     0.0977443609022556                     0.5                     0.5        1.47744357667135                     5.5                     5.5     0.00210699721050992     0.00235422820819088      0.0299680195822623        -13.355832533183                       0                       0       0.162946375726145     -0.0214767437460031       0.010396589394139 
      0.100250626566416                     0.5                     0.5        1.50250623200584                     5.5                     5.5     0.00214241700798006     0.00253522444113313      0.0293167477004792       -13.3562553765778                       0                       0       0.157199928729028     -0.0213847711183214      0.0108430714665746 
      0.102756892230576                     0.5                     0.5        1.52756888734032                     5.5                     5.5     0.00217783680545021     0.00271622067407538      0.0286654758186962       -13.3566782199726                       0                       0        0.15145348173191     -0.0212927984906398      0.0112895535390103 
      0.105263157894737                     0.5                     0.5        1.55263154267481                     5.5                     5.5     0.00221325660292035     0.00289721690701763      0.0280142039369132       -13.3571010633673                       0                       0       0.145707034734793     -0.0212008258629582      0.0117360356114459 
      0.107769423558897                     0.5                     0.5        1.57769419800929                     5.5                     5.5     0.00224867640039049     0.00307821313995988      0.0273629320551302       -13.3575239067621                       0                       0       0.139960587737676     -0.0211088532352766      0.0121825176838816 
      0.110275689223058                     0.5                     0.5        1.60275685334378                     5.5                     5.5     0.00228409619786064     0.00325920937290213      0.0267116601733471       -13.3579467501569                       0                       0       0.134214140740559      -0.021016880607595      0.0126289997563172 
      0.112781954887218                     0.5                     0.5        1.62781950867826                     5.5                     5.5     0.00231951599533078     0.00344020560584438      0.0260603882915641       -13.3583695935517                       0                       0       0.128467693743441     -0.0209249079799134      0.0130754818287529 
      0.115288220551378                     0.5                     0.5        1.65288216401275                     5.5                     5.5     0.00235493579280093     0.00362120183878663      0.0254091164097811       -13.3587924369464                       0                       0       0.122721246746324     -0.0208329353522318      0.0135219639011886 
      0.117794486215539                     0.5                     0.5        1.67794481934723                     5.5                     5.5     0.00239035559027107     0.00380219807172889      0.0247578445279981       -13.3592152803412                       0                       0       0.116974799749207     -0.0207409627245502      0.0139684459736242 
      0.120300751879699                     0.5                     0.5        1.70300747468172                     5.5                     5.5     0.00242577538774122     0.00398319430467114       0.024106572646215        -13.359638123736                       0                       0        0.11122835275209     -0.0206489900968686      0.0144149280460599 
       0.12280701754386                     0.5                     0.5         1.7280701300162                     5.5                     5.5     0.00246119518521136     0.00416419053761339       0.023455300764432       -13.3600609671308                       0                       0       0.105481905754973      -0.020557017469187      0.0148614101184955 
       0.12531328320802                     0.5                     0.5        1.75313278535068                     5.5                     5.5      0.0024966149826815     0.00434518677055564       0.022804028882649       -13.3604838105255                       0                       0      0.0997354587578553     -0.0204650448415054      0.0153078921909312 
       0.12781954887218                     0.5                     0.5        1.77819544068517                     5.5                     5.5     0.00253203478015165     0.00452618300349789       0.022152757000866       -13.3609066539203                       0                       0       0.093989011760738     -0.0203730722138238      0.0157543742633668 
      0.130325814536341                     0.5                     0.5        1.80325809601965                     5.5                     5.5     0.00256745457762179     0.00470717923644014      0.0215014851190829       -13.3613294973151                       0                       0      0.0882425647636208     -0.0202810995861422      0.0162008563358025 
      0.132832080200501                     0.5                     0.5        1.82832075135414                     5.5                     5.5     0.00260287437509194     0.00488817546938239      0.0208502132372999       -13.3617523407099                       0                       0      0.0824961177665035     -0.0201891269584606      0.0166473384082382 
      0.135338345864662                     0.5                     0.5        1.85338340668862                     5.5                     5.5     0.00263829417256208     0.00506917170232465      0.0201989413555169       -13.3621751841047                       0                       0      0.0767496707693863      -0.020097154330779      0.0170938204806738 
      0.137844611528822                     0.5                     0.5        1.87844606202311                     5.5                     5.5     0.00267371397003223      0.0052501679352669      0.0195476694737339       -13.3625980274994                       0                       0      0.0710032237722691     -0.0200051817030973      0.0175403025531095 
      0.140350877192982                     0.5                     0.5        1.90350871735759                     5.5                     5.5     0.00270913376750237     0.00543116416820915      0.0188963975919508       -13.3630208708942                       0                       0      0.0652567767751518     -0.0199132090754157      0.0179867846255451 
      0.142857142857143                     0.5                     0.5        1.92857137269208                     5.5                     5.5     0.00274455356497251      0.0056121604011514      0.0182451257101678        -13.363443714289                       0                       0      0.0595103297780346     -0.0198212364477341      0.0184332666979808 
      0.145363408521303                     0.5                     0.5        1.95363402802656                     5.5                     5.5     0.00277997336244266     0.00579315663409365      0.0175938538283848       -13.3638665576838                       0                       0      0.0537638827809174     -0.0197292638200525      0.0188797487704164 
      0.147869674185464                     0.5                     0.5        1.97869668336105                     5.5                     5.5      0.0028153931599128      0.0059741528670359      0.0169425819466018       -13.3642894010786                       0                       0      0.0480174357838002     -0.0196372911923709      0.0193262308428521 
      0.150375939849624                     0.5                     0.5        2.00375933911567                     5.5                     5.5     0.00284613164121128     0.00613234776970533      0.0163515976356533       -13.3646506474142                       0                       0       0.042908953655108     -0.0194960334754789      0.0197143399468569 
      0.152882205513784                     0.5                     0.5        2.02882199725112                     5.5                     5.5      0.0028503421693858     0.00616133272404829      0.0161022492651984        -13.364662837237                       0                       0      0.0414156732140806     -0.0190754883769319      0.0197716627263634 
      0.155388471177945                     0.5                     0.5        2.05388465538658                     5.5                     5.5     0.00285455269756033     0.00619031767839124      0.0158529008947435       -13.3646750270598                       0                       0      0.0399223927730532      -0.018654943278385      0.0198289855058698 
      0.157894736842105                     0.5                     0.5        2.07894731352203                     5.5                     5.5     0.00285876322573485      0.0062193026327342      0.0156035525242886       -13.3646872168826                       0                       0      0.0384291123320259      -0.018234398179838      0.0198863082853763 
      0.160401002506266                     0.5                     0.5        2.10400997165749                     5.5                     5.5     0.00286297375390938     0.00624828758707715      0.0153542041538337       -13.3646994067054                       0                       0      0.0369358318909985     -0.0178138530812911      0.0199436310648828 
      0.162907268170426                     0.5                     0.5        2.12907262979294                     5.5                     5.5      0.0028671842820839     0.00627727254142011      0.0151048557833788       -13.3647115965282                       0                       0      0.0354425514499711     -0.0173933079827441      0.0200009538443893 
      0.165413533834586                     0.5                     0.5         2.1541352879284                     5.5                     5.5     0.00287139481025843     0.00630625749576306       0.014855507412924       -13.3647237863511                       0                       0      0.0339492710089438     -0.0169727628841971      0.0200582766238958 
      0.167919799498747                     0.5                     0.5        2.17919794606385                     5.5                     5.5     0.00287560533843295     0.00633524245010602      0.0146061590424691       -13.3647359761739                       0                       0      0.0324559905679164     -0.0165522177856502      0.0201155994034023 
      0.170426065162907                     0.5                     0.5        2.20426060419931                     5.5                     5.5     0.00287981586660748     0.00636422740444897      0.0143568106720142       -13.3647481659967                       0                       0       0.030962710126889     -0.0161316726871032      0.0201729221829088 
      0.172932330827068                     0.5                     0.5        2.22932326233476                     5.5                     5.5       0.002884026394782     0.00639321235879193      0.0141074623015593       -13.3647603558195                       0                       0      0.0294694296858616     -0.0157111275885563      0.0202302449624153 
      0.175438596491228                     0.5                     0.5        2.25438592047022                     5.5                     5.5     0.00288823692295653     0.00642219731313488      0.0138581139311044       -13.3647725456423                       0                       0      0.0279761492448343     -0.0152905824900093      0.0202875677419217 
      0.177944862155388                     0.5                     0.5        2.27944857860567                     5.5                     5.5     0.00289244745113106     0.00645118226747784      0.0136087655606495       -13.3647847354651                       0                       0      0.0264828688038069     -0.0148700373914624      0.0203448905214282 
      0.180451127819549                     0.5                     0.5        2.30451123674113                     5.5                     5.5     0.00289665797930558     0.00648016722182079      0.0133594171901946        -13.364796925288                       0                       0      0.0249895883627795     -0.0144494922929154      0.0204022133009347 
      0.182957393483709                     0.5                     0.5        2.32957389487658                     5.5                     5.5      0.0029008685074801     0.00650915217616375      0.0131100688197397       -13.3648091151108                       0                       0      0.0234963079217522     -0.0140289471943684      0.0204595360804412 
       0.18546365914787                     0.5                     0.5        2.35463655301204                     5.5                     5.5     0.00290507903565463      0.0065381371305067      0.0128607204492849       -13.3648213049336                       0                       0      0.0220030274807248     -0.0136084020958215      0.0205168588599477 
       0.18796992481203                     0.5                     0.5        2.37969921114749                     5.5                     5.5     0.00290928956382916     0.00656712208484966        0.01261137207883       -13.3648334947564                       0                       0      0.0205097470396974     -0.0131878569972745      0.0205741816394542 
       0.19047619047619                     0.5                     0.5        2.40476186928295                     5.5                     5.5     0.00291350009200368     0.00659610703919261      0.0123620237083751       -13.3648456845792                       0                       0        0.01901646659867     -0.0127673118987276      0.0206315044189607 
      0.192982456140351                     0.5                     0.5         2.4298245274184                     5.5                     5.5     0.00291771062017821     0.00662509199353557      0.0121126753379202        -13.364857874402                       0                       0      0.0175231861576427     -0.0123467668001806      0.0206888271984672 
      0.195488721804511                     0.5                     0.5        2.45488718555386                     5.5                     5.5     0.00292192114835273     0.00665407694787852      0.0118633269674653       -13.3648700642248                       0                       0      0.0160299057166153     -0.0119262217016337      0.0207461499779737 
      0.197994987468672                     0.5                     0.5        2.47994984368931                     5.5                     5.5     0.00292613167652726     0.00668306190222148      0.0116139785970104       -13.3648822540477                       0                       0      0.0145366252755879     -0.0115056766030867      0.0208034727574801 
      0.200501253132832                     0.5                     0.5        2.50501250182477                     5.5                     5.5     0.00293034220470178     0.00671204685656443      0.0113646302265555       -13.3648944438705                       0                       0      0.0130433448345606     -0.0110851315045397      0.0208607955369866 
      0.203007518796992                     0.5                     0.5        2.53007515996022                     5.5                     5.5     0.00293455273287631     0.00674103181090739      0.0111152818561006       -13.3649066336933                       0                       0      0.0115500643935332     -0.0106645864059928      0.0209181183164931 