VARIABLES = "X"
 "Y"
 "Z"
 "I"
 "J"
 "K"
 "U"
 "V"
 "W"
 "T"
 "fu"
 "fv"
 "X Pressure Gradient"
 "Y Pressure Gradient"
 "Z Pressure Gradient"
ZONE
DT=(DOUBLE,DOUBLE,DOUBLE,DOUBLE,DOUBLE,DOUBLE,DOUBLE,DOUBLE,DOUBLE,DOUBLE,DOUBLE,DOUBLE,DOUBLE,DOUBLE,DOUBLE)
                      0                     0.5                     0.5                       0        10.5000002980233                    10.5                       0                       0                       0                       1                       0                       0        11.1795010566748  -1.34121762946382E-006       0.402586594223754 
     0.0025062656641604                     0.5                     0.5       0.100250625072565        10.5000002980233                    10.5   6.36591429423009E-006   2.50626704513349E-008    -0.00017177944695591        1.03894551298003                       0                       0        11.0341865721382  -9.56551068036291E-007       0.450103507455534 
     0.0050125313283208                     0.5                     0.5       0.200501250145131        10.5000002980233                    10.5   1.27318285884602E-005   5.01253409026698E-008   -0.000343558893911821        1.07789102596005                       0                       0        10.8888720876016   -5.7188450660879E-007       0.497620420687314 
     0.0075187969924812                     0.5                     0.5       0.300751875217696        10.5000002980233                    10.5   1.90977428826903E-005   7.51880113540046E-008   -0.000515338340867731        1.11683653894008                       0                       0         10.743557603065  -1.87217945181328E-007       0.545137333919093 
     0.0100250626566416                     0.5                     0.5       0.401002500290261        10.5000002980233                    10.5   2.54636571769204E-005    1.0025068180534E-007   -0.000687117787823641        1.15578205192011                       0                       0        10.5982431185283   1.97448616246187E-007       0.592654247150873 
      0.012531328320802                     0.5                     0.5       0.501253125362827        10.5000002980233                    10.5   3.18295714711505E-005   1.25312905221765E-007   -0.000858897234779552        1.19472756490013                       0                       0        10.4529286339869   5.82041125736743E-007       0.640171160383177 
     0.0150375939849624                     0.5                     0.5       0.601503750435392        10.5000002980233                    10.5   3.81954857653806E-005   1.50375575673099E-007    -0.00103067668173546        1.23367307788016                       0                       0        10.3076141494502   9.66707687164265E-007       0.687688073614957 
     0.0175438596491228                     0.5                     0.5       0.701754375507957        10.5000002980233                    10.5   4.45614000596107E-005   1.75438246124434E-007    -0.00120245612869137        1.27261859086018                       0                       0        10.1622996649136   1.35137424859176E-006       0.735204986846736 
     0.0200501253132832                     0.5                     0.5       0.802005000580523        10.5000002980233                    10.5   5.09273143538408E-005   2.00500916575769E-007    -0.00137423557564728        1.31156410384021                       0                       0         10.016985180377   1.73604081001928E-006       0.782721900078516 
     0.0225563909774436                     0.5                     0.5       0.902255625653088        10.5000002980233                    10.5   5.72932286480708E-005   2.25563587027104E-007    -0.00154601502260319        1.35050961682024                       0                       0        9.87167069584034   2.12070737144677E-006       0.830238813310296 
      0.025062656641604                     0.5                     0.5        1.00125312531614        10.5000002980233                    10.5   6.36046319803426E-005   2.50312975592613E-007    -0.00171285089002189        1.38904242549608                       0                       0        9.72542989209793   2.47447011702737E-006       0.877551217764632 
     0.0275689223057644                     0.5                     0.5        1.05137843598511        10.5000002980233                    10.5   6.77900948322276E-005   2.62844296104982E-007    -0.00168688597978777        1.41147966815797                       0                       0         9.5430624190294   1.62297669491207E-006       0.916887731261607 
     0.0300751879699248                     0.5                     0.5        1.10150374665408        10.5000002980233                    10.5   7.19755576841126E-005   2.75375616617351E-007    -0.00166092106955364        1.43391691081986                       0                       0        9.36069494596086   7.71483272796831E-007       0.956224244758582 
     0.0325814536340852                     0.5                     0.5        1.15162905732305        10.5000002980233                    10.5   7.61610205359975E-005   2.87906937129719E-007    -0.00163495615931951        1.45635415348176                       0                       0        9.17832747289233  -8.00101493183831E-008       0.995560758255557 
     0.0350877192982456                     0.5                     0.5        1.20175436799202        10.5000002980233                    10.5   8.03464833878825E-005   3.00438257642088E-007    -0.00160899124908539        1.47879139614365                       0                       0        8.99595999982379  -9.31503571433679E-007        1.03489727175253 
      0.037593984962406                     0.5                     0.5        1.25187967866099        10.5000002980233                    10.5   8.45319462397675E-005   3.12969578154457E-007    -0.00158302633885126        1.50122863880554                       0                       0        8.81359252675525  -1.78299699354895E-006        1.07423378524951 
     0.0401002506265664                     0.5                     0.5        1.30200498932996        10.5000002980233                    10.5   8.87174090916524E-005   3.25500898666825E-007    -0.00155706142861713        1.52366588146743                       0                       0        8.63122505368672  -2.63449041566419E-006        1.11357029874648 
     0.0426065162907268                     0.5                     0.5        1.35213029999893        10.5000002980233                    10.5   9.29028719435374E-005   3.38032219179194E-007    -0.00153109651838301        1.54610312412932                       0                       0        8.44885758061818  -3.48598383777946E-006        1.15290681224346 
     0.0451127819548872                     0.5                     0.5         1.4022556106679        10.5000002980233                    10.5   9.70883347954224E-005   3.50563539691563E-007    -0.00150513160814888        1.56854036679121                       0                       0        8.26649010754965  -4.33747725989474E-006        1.19224332574043 
     0.0476190476190476                     0.5                     0.5        1.45238092133687        10.5000002980233                    10.5    0.000101273797647307   3.63094860203932E-007    -0.00147916669791476         1.5909776094531                       0                       0        8.08412263448111     -5.18897068201E-006        1.23157983923741 
      0.050125313283208                     0.5                     0.5        1.50250623200584        10.5000002980233                    10.5    0.000105459260499192   3.75625733681221E-007    -0.00145320178768063        1.61341485211527                       0                       0        7.90175516139808  -6.04053622436014E-006        1.27091635273571 
     0.0526315789473684                     0.5                     0.5        1.55263154267481        10.5000002980233                    10.5    0.000109644723351077    3.8815705419359E-007     -0.0014272368774465        1.63585209477716                       0                       0        7.71938768832955  -6.89202964647541E-006        1.31025286623269 
     0.0551378446115288                     0.5                     0.5        1.60275685334378        10.5000002980233                    10.5    0.000113830186202962   4.00688374705958E-007    -0.00140127196721238        1.65828933743905                       0                       0        7.53702021526101  -7.74352306859068E-006        1.34958937972966 
     0.0576441102756892                     0.5                     0.5        1.65288216401275        10.5000002980233                    10.5    0.000118015649054847   4.13219695218327E-007    -0.00137530705697825        1.68072658010094                       0                       0        7.35465274219248  -8.59501649070592E-006        1.38892589322664 
     0.0601503759398496                     0.5                     0.5        1.70300747468172        10.5000002980233                    10.5    0.000122201111906732   4.25751015730696E-007    -0.00134934214674412        1.70316382276283                       0                       0        7.17228526912394  -9.44650991282121E-006        1.42826240672361 
       0.06265664160401                     0.5                     0.5        1.75313278535068        10.5000002980233                    10.5    0.000126386574758617   4.38282336243064E-007       -0.00132337723651        1.72560106542472                       0                       0         6.9899177960554  -1.02980033349365E-005        1.46759892022059 
     0.0651629072681704                     0.5                     0.5        1.80325809601965        10.5000002980233                    10.5    0.000130572037610502   4.50813656755433E-007    -0.00129741232627587        1.74803830808662                       0                       0        6.80755032298687  -1.11494967570517E-005        1.50693543371756 
     0.0676691729323308                     0.5                     0.5        1.85338340668862        10.5000002980233                    10.5    0.000134757500462387   4.63344977267802E-007    -0.00127144741604174        1.77047555074851                       0                       0        6.62518284991833   -1.2000990179167E-005        1.54627194721454 
     0.0701754385964912                     0.5                     0.5        1.90350871735759        10.5000002980233                    10.5    0.000138942963314272   4.75876297780171E-007    -0.00124548250580762         1.7929127934104                       0                       0         6.4428153768498  -1.28524836012823E-005        1.58560846071151 
     0.0726817042606516                     0.5                     0.5        1.95363402802656        10.5000002980233                    10.5    0.000143128426166157   4.88407618292539E-007    -0.00121951759557349        1.81535003607229                       0                       0        6.26044790378126  -1.37039770233975E-005        1.62494497420849 
      0.075187969924812                     0.5                     0.5        2.00375933911567        10.5000002980233                    10.5    0.000147090208395752   4.99059269356853E-007    -0.00119197376259628        1.83671190420163                       0                       0        6.07756245821354  -1.48046132360677E-005        1.66241605715224 
     0.0776942355889724                     0.5                     0.5        2.05388465538658        10.5000002980233                    10.5    0.000148293215664096   4.86527933197529E-007    -0.00114495621533485        1.84481059242754                       0                       0        5.88828857565593  -1.89780632013227E-005        1.67687976891877 
     0.0802005012531328                     0.5                     0.5        2.10400997165749        10.5000002980233                    10.5    0.000149496222932439   4.73996597038204E-007    -0.00109793866807342        1.85290928065344                       0                       0        5.69901469309831  -2.31515131665778E-005        1.69134348068529 
     0.0827067669172932                     0.5                     0.5         2.1541352879284        10.5000002980233                    10.5    0.000150699230200783   4.61465260878879E-007    -0.00105092112081199        1.86100796887935                       0                       0         5.5097408105407  -2.73249631318328E-005        1.70580719245182 
     0.0852130325814536                     0.5                     0.5        2.20426060419931        10.5000002980233                    10.5    0.000151902237469126   4.48933924719554E-007    -0.00100390357355056        1.86910665710525                       0                       0        5.32046692798308  -3.14984130970879E-005        1.72027090421834 
      0.087719298245614                     0.5                     0.5        2.25438592047022        10.5000002980233                    10.5     0.00015310524473747    4.3640258856023E-007   -0.000956886026289137        1.87720534533116                       0                       0        5.13119304542546   -3.5671863062343E-005        1.73473461598487 
     0.0902255639097744                     0.5                     0.5        2.30451123674113        10.5000002980233                    10.5    0.000154308252005814   4.23871252400905E-007    -0.00090986847902771        1.88530403355706                       0                       0        4.94191916286784  -3.98453130275981E-005        1.74919832775139 
     0.0927318295739348                     0.5                     0.5        2.35463655301204        10.5000002980233                    10.5    0.000155511259274157    4.1133991624158E-007   -0.000862850931766282        1.89340272178296                       0                       0        4.75264528031023  -4.40187629928531E-005        1.76366203951791 
     0.0952380952380952                     0.5                     0.5        2.40476186928295        10.5000002980233                    10.5    0.000156714266542501   3.98808580082256E-007   -0.000815833384504855        1.90150141000887                       0                       0        4.56337139775261  -4.81922129581082E-005        1.77812575128444 
     0.0977443609022556                     0.5                     0.5        2.45488718555386        10.5000002980233                    10.5    0.000157917273810844   3.86277243922931E-007   -0.000768815837243427        1.90960009823477                       0                       0          4.374097515195  -5.23656629233632E-005        1.79258946305096 
      0.100250626566416                     0.5                     0.5        2.50501250182477        10.5000002980233                    10.5    0.000159120281079188   3.73745758751857E-007      -0.000721798289982        1.91769878645908                       0                       0        4.18482363262168   -5.6538759371491E-005        1.80705317481703 
      0.102756892230576                     0.5                     0.5        2.55513781809568        10.5000002980233                    10.5    0.000160323288347531   3.61214422592532E-007   -0.000674780742720572        1.92579747468498                       0                       0        3.99554975006406  -6.07122093367461E-005        1.82151688658355 
      0.105263157894737                     0.5                     0.5        2.60526313436659        10.5000002980233                    10.5    0.000161526295615875   3.48683086433207E-007   -0.000627763195459144        1.93389616291088                       0                       0        3.80627586750644  -6.48856593020012E-005        1.83598059835008 
      0.107769423558897                     0.5                     0.5         2.6553884506375        10.5000002980233                    10.5    0.000162729302884218   3.36151750273883E-007   -0.000580745648197717        1.94199485113679                       0                       0        3.61700198494883  -6.90591092672563E-005         1.8504443101166 
      0.110275689223058                     0.5                     0.5        2.70551376690841        10.5000002980233                    10.5    0.000163932310152562   3.23620414114558E-007   -0.000533728100936289        1.95009353936269                       0                       0        3.42772810239121  -7.32325592325113E-005        1.86490802188312 
      0.112781954887218                     0.5                     0.5        2.75563908317931        10.5000002980233                    10.5    0.000165135317420906   3.11089077955233E-007   -0.000486710553674862         1.9581922275886                       0                       0        3.23845421983359  -7.74060091977664E-005        1.87937173364965 
      0.115288220551378                     0.5                     0.5        2.80576439945022        10.5000002980233                    10.5    0.000166338324689249   2.98557741795908E-007   -0.000439693006413434         1.9662909158145                       0                       0        3.04918033727598  -8.15794591630214E-005        1.89383544541617 
      0.117794486215539                     0.5                     0.5        2.85588971572113        10.5000002980233                    10.5    0.000167541331957593   2.86026405636584E-007   -0.000392675459152007         1.9743896040404                       0                       0        2.85990645471836  -8.57529091282765E-005         1.9082991571827 
      0.120300751879699                     0.5                     0.5        2.90601503199204        10.5000002980233                    10.5    0.000168744339225936   2.73495069477259E-007   -0.000345657911890579        1.98248829226631                       0                       0        2.67063257216074  -8.99263590935315E-005        1.92276286894922 
       0.12280701754386                     0.5                     0.5        2.95614034826295        10.5000002980233                    10.5     0.00016994734649428   2.60963733317934E-007   -0.000298640364629151        1.99058698049221                       0                       0        2.48135868960313  -9.40998090587866E-005        1.93722658071575 
       0.12531328320802                     0.5                     0.5        3.00626566453386        10.5000002980233                    10.5    0.000171172283573122   2.48432398939418E-007    -0.00025279762966039        1.99772532131319                       0                       0        2.30210857966859  -9.85118096513748E-005        1.94900324136349 
       0.12781954887218                     0.5                     0.5        3.05639098080477        10.5000002980233                    10.5    0.000172550729325451   2.35901077026565E-007   -0.000215178580740292        1.99814123029964                       0                       0        2.19302487809561   -0.000104593664635295        1.94197054417974 
      0.130325814536341                     0.5                     0.5        3.10651629707568        10.5000002980233                    10.5     0.00017392917507778   2.23369755113712E-007   -0.000177559531820193         1.9985571392861                       0                       0        2.08394117652263   -0.000110675519619214        1.93493784699598 
      0.132832080200501                     0.5                     0.5        3.15664161334659        10.5000002980233                    10.5    0.000175307620830109   2.10838433200859E-007   -0.000139940482900095        1.99897304827256                       0                       0        1.97485747494965   -0.000116757374603134        1.92790514981223 
      0.135338345864662                     0.5                     0.5         3.2067669296175        10.5000002980233                    10.5    0.000176686066582438   1.98307111288006E-007   -0.000102321433979997        1.99938895725901                       0                       0        1.86577377337667   -0.000122839229587054        1.92087245262848 
      0.137844611528822                     0.5                     0.5        3.25689224588841        10.5000002980233                    10.5    0.000178064512334767   1.85775789375153E-007  -6.47023850598984E-005        1.99980486624547                       0                       0        1.75669007180369   -0.000128921084570973        1.91383975544473 
      0.140350877192982                     0.5                     0.5        3.30701756215932        10.5000002980233                    10.5    0.000179442958087097     1.732444674623E-007     -2.70833361398E-005        2.00022077523193                       0                       0        1.64760637023071   -0.000135002939554893        1.90680705826097 
      0.142857142857143                     0.5                     0.5        3.35714287843023        10.5000002980233                    10.5    0.000180821403839426   1.60713145549447E-007   1.05357127802983E-005        2.00063668421838                       0                       0        1.53852266865773   -0.000141084794538813        1.89977436107722 
      0.145363408521303                     0.5                     0.5        3.40726819470114        10.5000002980233                    10.5    0.000182199849591755   1.48181823636594E-007   4.81547617003966E-005        2.00105259320484                       0                       0        1.42943896708475   -0.000147166649522733        1.89274166389347 
      0.147869674185464                     0.5                     0.5        3.45739351097205        10.5000002980233                    10.5    0.000183578295344084   1.35650501723741E-007   8.57738106204949E-005         2.0014685021913                       0                       0        1.32035526551177   -0.000153248504506652        1.88570896670972 
      0.150375939849624                     0.5                     0.5        3.50751882724296        10.5000002980233                    10.5    0.000184956741096413   1.23120222892272E-007    0.000123392859540593        2.00188441117537                       0                       0         1.2112715639387    -0.00015932936475274        1.87867626952192 
      0.152882205513784                     0.5                     0.5        3.55764414351387        10.5000002980233                    10.5    0.000186335186848742   1.10588900979419E-007    0.000161011908460692        2.00230032016183                       0                       0        1.10218786236572    -0.00016541121973666        1.87164357233816 
      0.155388471177945                     0.5                     0.5        3.60776945978478        10.5000002980233                    10.5    0.000187713632601071   9.80575790665659E-008     0.00019863095738079        2.00271622914828                       0                       0       0.993104160792738    -0.00017149307472058        1.86461087515441 
      0.157894736842105                     0.5                     0.5        3.65789477605569        10.5000002980233                    10.5    0.000189092078353401   8.55262571537128E-008    0.000236250006300888        2.00313213813474                       0                       0       0.884020459219758     -0.0001775749297045        1.85757817797066 
      0.160401002506266                     0.5                     0.5         3.7080200923266        10.5000002980233                    10.5     0.00019047052410573   7.29949352408599E-008    0.000273869055220987         2.0035480471212                       0                       0       0.774936757646779   -0.000183656784688419        1.85054548078691 
      0.162907268170426                     0.5                     0.5        3.75814540859751        10.5000002980233                    10.5    0.000191848969858059   6.04636133280068E-008    0.000311488104141085        2.00396395610766                       0                       0       0.665853056073799   -0.000189738639672339        1.84351278360316 
      0.165413533834586                     0.5                     0.5        3.80827072486842        10.5000002980233                    10.5    0.000193227415610388   4.79322914151538E-008    0.000349107153061183        2.00437986509411                       0                       0        0.55676935450082   -0.000195820494656259         1.8364800864194 
      0.167919799498747                     0.5                     0.5        3.85839604113933        10.5000002980233                    10.5    0.000194605861362717    3.5400969502301E-008    0.000386726201981282        2.00479577408057                       0                       0        0.44768565292784   -0.000201902349640178        1.82944738923565 
      0.170426065162907                     0.5                     0.5        3.90852135741024        10.5000002980233                    10.5    0.000195984307115046   2.28696475894479E-008     0.00042434525090138        2.00521168306703                       0                       0       0.338601951354861   -0.000207984204624098         1.8224146920519 
      0.172932330827068                     0.5                     0.5        3.95864667368115        10.5000002980233                    10.5    0.000197362752867375   1.03383256765949E-008    0.000461964299821478        2.00562759205348                       0                       0       0.229518249781881   -0.000214066059608018        1.81538199486815 
      0.175438596491228                     0.5                     0.5        4.00877198995206        10.5000002980233                    10.5    0.000199144710294102  -3.55270963641651E-019     0.00049711841994325        2.00567853302414                       0                       0       0.133701261642748   -0.000219829955585807        1.80787637080001 
      0.177944862155388                     0.5                     0.5        4.05889730622297        10.5000002980233                    10.5    0.000202828921375477  -3.55277446538435E-019    0.000520652257152358        2.00400892466267                       0                       0       0.100426836001636    -0.00022409491430895        1.79814125263969 
      0.180451127819549                     0.5                     0.5        4.10902262249388        10.5000002980233                    10.5    0.000206513132456852  -3.55283929384732E-019    0.000544186094361466         2.0023393163012                       0                       0      0.0671524103605235   -0.000228359873032092        1.78840613447938 
      0.182957393483709                     0.5                     0.5        4.15914793876479        10.5000002980233                    10.5    0.000210197343538227  -3.55277177442203E-019    0.000567719931570574        2.00066970793974                       0                       0      0.0338779847194111   -0.000232624831755234        1.77867101631906 
       0.18546365914787                     0.5                     0.5         4.2092732550357        10.5000002980233                    10.5    0.000213881554619601  -3.55270425449187E-019    0.000591253768779682        1.99900009957827                       0                       0    0.000603559078298635   -0.000236889790478377        1.76893589815874 
       0.18796992481203                     0.5                     0.5        4.25939857130661        10.5000002980233                    10.5    0.000217565765700976  -3.55263673430927E-019     0.00061478760598879        1.99733049121681                       0                       0     -0.0326708665628138   -0.000241154749201519        1.75920077999842 
       0.19047619047619                     0.5                     0.5        4.30952388757752        10.5000002980233                    10.5    0.000221249976782351   -3.5525692143791E-019    0.000638321443197898        1.99566088285534                       0                       0     -0.0659452922039262   -0.000245419707924662         1.7494656618381 
      0.192982456140351                     0.5                     0.5        4.35964920384843        10.5000002980233                    10.5    0.000224934187863726  -3.55250169444894E-019    0.000661855280407006        1.99399127449387                       0                       0     -0.0992197178450387   -0.000249684666647804        1.73973054367778 
      0.195488721804511                     0.5                     0.5        4.40977452011933        10.5000002980233                    10.5      0.0002286183989451  -3.55243417451878E-019    0.000685389117616114        1.99232166613241                       0                       0      -0.132494143486151   -0.000253949625370947        1.72999542551747 
      0.197994987468672                     0.5                     0.5        4.45989983639024        10.5000002980233                    10.5    0.000232302610026475  -3.55236665484105E-019    0.000708922954825222        1.99065205777094                       0                       0      -0.165768569127264   -0.000258214584094089        1.72026030735715 
      0.200501253132832                     0.5                     0.5        4.51002515266115        10.5000002980233                    10.5     0.00023598682110785   1.78813963940897E-012     0.00073245679203433        1.98898244940809                       0                       0      -0.199042994753872   -0.000262478549211643        1.71052518919225 
      0.203007518796992                     0.5                     0.5        4.56015046893206        10.5000002980233                    10.5    0.000239671032189225   1.78813963941572E-012    0.000755990629243438        1.98731284104662                       0                       0      -0.232317420394984   -0.000266743507934786        1.70079007103193 