VARIABLES = "X"
 "Y"
 "Z"
 "I"
 "J"
 "K"
 "U"
 "V"
 "W"
 "T"
 "fu"
 "fv"
 "X Pressure Gradient"
 "Y Pressure Gradient"
 "Z Pressure Gradient"
ZONE
DT=(DOUBLE,DOUBLE,DOUBLE,DOUBLE,DOUBLE,DOUBLE,DOUBLE,DOUBLE,DOUBLE,DOUBLE,DOUBLE,DOUBLE,DOUBLE,DOUBLE,DOUBLE)
                      0                     0.5                     0.5                       0                    10.5        10.5000002980233                       0                       0                       0                       1                       0                       0        11.1795014375037  -1.34122516826926E-006       0.402586604026387 
     0.0025062656641604                     0.5                     0.5       0.100250625072565                    10.5        10.5000002980233   6.36591484129457E-006   2.50626120813689E-008    -0.00017177944695591        1.03894551298003                       0                       0        11.0341869051639   -9.5656457326368E-007       0.450103514270466 
     0.0050125313283208                     0.5                     0.5       0.200501250145131                    10.5        10.5000002980233   1.27318296825891E-005   5.01252241627379E-008   -0.000343558893911821        1.07789102596005                       0                       0         10.888872372824  -5.71903978258104E-007       0.497620424514544 
     0.0075187969924812                     0.5                     0.5       0.300751875217696                    10.5        10.5000002980233   1.90977445238837E-005   7.51878362441068E-008   -0.000515338340867731        1.11683653894008                       0                       0        10.7435578404842  -1.87243383252527E-007       0.545137334758622 
     0.0100250626566416                     0.5                     0.5       0.401002500290261                    10.5        10.5000002980233   2.54636593651783E-005   1.00250448325476E-007   -0.000687117787823641        1.15578205192011                       0                       0        10.5982433081443    1.9741721175305E-007       0.592654245002701 
      0.012531328320802                     0.5                     0.5       0.501253125362827                    10.5        10.5000002980233    3.1829571524263E-005   1.25313209418602E-007   -0.000858897272032474        1.19472757697751                       0                       0        10.4529287211904   5.82078450664324E-007       0.640171168602207 
     0.0150375939849624                     0.5                     0.5       0.601503750435392                    10.5        10.5000002980233   3.81954863655576E-005   1.50375821499971E-007    -0.00103067671898838        1.23367308995754                       0                       0        10.3076141888506     9.667390456699E-007       0.687688078846285 
     0.0175438596491228                     0.5                     0.5       0.701754375507957                    10.5        10.5000002980233   4.45614012068522E-005    1.7543843358134E-007    -0.00120245616594429        1.27261860293757                       0                       0        10.1622996565107   1.35139964067548E-006       0.735204989090364 
     0.0200501253132832                     0.5                     0.5       0.802005000580522                    10.5        10.5000002980233   5.09273160481467E-005   2.00501045662709E-007     -0.0013742356129002        1.31156411591759                       0                       0        10.0169851241708   1.73606023568105E-006       0.782721899334442 
     0.0225563909774436                     0.5                     0.5       0.902255625653088                    10.5        10.5000002980233   5.72932308894413E-005   2.25563657744078E-007    -0.00154601505985612        1.35050962889762                       0                       0        9.87167059183099   2.12072083068663E-006        0.83023880957852 
      0.025062656641604                     0.5                     0.5        1.00125312531614                    10.5        10.5000002980233   6.36046347664981E-005   2.50312988988771E-007    -0.00171285092727481        1.38904243757347                       0                       0        9.72542974148044   2.47447765906659E-006       0.877551211157194 
     0.0275689223057644                     0.5                     0.5        1.05137843598511                    10.5        10.5000002980233   6.77900980742702E-005   2.62844293097417E-007    -0.00168688601704069        1.41147968023536                       0                       0         9.5430622684119   1.62298023939181E-006       0.916887726148019 
     0.0300751879699248                     0.5                     0.5        1.10150374665408                    10.5        10.5000002980233   7.19755613820422E-005   2.75375597206063E-007    -0.00166092110680656        1.43391692289725                       0                       0        9.36069479534337   7.71482819717021E-007       0.956224241138845 
     0.0325814536340852                     0.5                     0.5        1.15162905732305                    10.5        10.5000002980233   7.61610246898142E-005   2.87906901314709E-007    -0.00163495619657244        1.45635416555914                       0                       0        9.17832732227483  -8.00145999577623E-008        0.99556075612967 
     0.0350877192982456                     0.5                     0.5        1.20175436799202                    10.5        10.5000002980233   8.03464879975862E-005   3.00438205423356E-007    -0.00160899128633831        1.47879140822103                       0                       0         8.9959598492063  -9.31512019632547E-007         1.0348972711205 
      0.037593984962406                     0.5                     0.5        1.25187967866099                    10.5        10.5000002980233   8.45319513053582E-005   3.12969509532002E-007    -0.00158302637610418        1.50122865088292                       0                       0        8.81359237613776  -1.78300943930733E-006        1.07423378611132 
     0.0401002506265664                     0.5                     0.5        1.30200498932996                    10.5        10.5000002980233   8.87174146131302E-005   3.25500813640648E-007    -0.00155706146587006        1.52366589354481                       0                       0        8.63122490306923  -2.63450685898212E-006        1.11357030110215 
     0.0426065162907268                     0.5                     0.5        1.35213029999893                    10.5        10.5000002980233   9.29028779209023E-005   3.38032117749294E-007    -0.00153109655563593         1.5461031362067                       0                       0        8.44885743000069   -3.4860042786569E-006        1.15290681609297 
     0.0451127819548872                     0.5                     0.5         1.4022556106679                    10.5        10.5000002980233   9.70883412286743E-005    3.5056342185794E-007     -0.0015051316454018        1.56854037886859                       0                       0        8.26648995693215  -4.33750169833169E-006         1.1922433310838 
     0.0476190476190476                     0.5                     0.5        1.45238092133687                    10.5        10.5000002980233    0.000101273804536446   3.63094725966586E-007    -0.00147916673516768        1.59097762153048                       0                       0        8.08412248386362  -5.18899911800647E-006        1.23157984607462 
      0.050125313283208                     0.5                     0.5        1.50250623200584                    10.5        10.5000002980233    0.000105459259797585   3.75625881063475E-007    -0.00145320179930356        1.61341488101071                       0                       0        7.90175486440106   -6.0404950278719E-006        1.27091638170647 
     0.0526315789473684                     0.5                     0.5        1.55263154267481                    10.5        10.5000002980233    0.000109644723105357   3.88157185172121E-007    -0.00142723688906943         1.6358521236726                       0                       0        7.71938739133252  -6.89199244754669E-006         1.3102528966973 
     0.0551378446115288                     0.5                     0.5        1.60275685334378                    10.5        10.5000002980233    0.000113830186413129   4.00688489280767E-007    -0.00140127197883531        1.65828936633449                       0                       0        7.53701991826399  -7.74348986722147E-006        1.34958941168813 
     0.0576441102756892                     0.5                     0.5        1.65288216401275                    10.5        10.5000002980233    0.000118015649720901   4.13219793389413E-007    -0.00137530706860118        1.68072660899638                       0                       0        7.35465244519545  -8.59498728689625E-006        1.38892592667895 
     0.0601503759398496                     0.5                     0.5        1.70300747468172                    10.5        10.5000002980233    0.000122201113028673   4.25751097498059E-007    -0.00134934215836705        1.70316385165827                       0                       0        7.17228497212692  -9.44648470657104E-006        1.42826244166978 
       0.06265664160401                     0.5                     0.5        1.75313278535068                    10.5        10.5000002980233    0.000126386576336445   4.38282401606705E-007    -0.00132337724813293        1.72560109432016                       0                       0        6.98991749905838  -1.02979821262458E-005         1.4675989566606 
     0.0651629072681704                     0.5                     0.5        1.80325809601965                    10.5        10.5000002980233    0.000130572039644217   4.50813705715351E-007     -0.0012974123378988        1.74803833698205                       0                       0        6.80755002598985  -1.11494795459206E-005        1.50693547165143 
     0.0676691729323308                     0.5                     0.5        1.85338340668862                    10.5        10.5000002980233    0.000134757502951989   4.63345009823997E-007    -0.00127144742766467        1.77047557964394                       0                       0        6.62518255292131  -1.20009769655954E-005        1.54627198664225 
     0.0701754385964912                     0.5                     0.5        1.90350871735759                    10.5        10.5000002980233    0.000138942966259761   4.75876313932643E-007    -0.00124548251743055        1.79291282230584                       0                       0        6.44281507985278  -1.28524743852702E-005        1.58560850163308 
     0.0726817042606516                     0.5                     0.5        1.95363402802656                    10.5        10.5000002980233    0.000143128429567533   4.88407618041289E-007    -0.00121951760719642        1.81535006496773                       0                       0        6.26044760678424   -1.3703971804945E-005         1.6249450166239 
      0.075187969924812                     0.5                     0.5        2.00375933911567                    10.5        10.5000002980233    0.000147090212246177   4.99059253935183E-007     -0.0011919737741645          1.836711932873                       0                       0        6.07756216256097  -1.48046103972998E-005        1.66241610117355 
     0.0776942355889724                     0.5                     0.5        2.05388465538658                    10.5        10.5000002980233     0.00014829321987923   4.86527917816422E-007    -0.00114495622617365         1.8448106181112                       0                       0        5.88828829792956  -1.89780427881073E-005        1.67687981592777 
     0.0802005012531328                     0.5                     0.5        2.10400997165749                    10.5        10.5000002980233    0.000149496227512283   4.73996581697661E-007     -0.0010979386781828         1.8529093033494                       0                       0        5.69901443329815  -2.31514751789148E-005          1.691343530682 
     0.0827067669172932                     0.5                     0.5         2.1541352879284                    10.5        10.5000002980233    0.000150699235145336     4.614652455789E-007    -0.00105092113019196        1.86100798858761                       0                       0        5.50974056866675  -2.73249075697223E-005        1.70580724543623 
     0.0852130325814536                     0.5                     0.5        2.20426060419931                    10.5        10.5000002980233     0.00015190224277839   4.48933909460139E-007    -0.00100390358220111        1.86910667382581                       0                       0        5.32046670403534  -3.14983399605299E-005        1.72027096019045 
      0.087719298245614                     0.5                     0.5        2.25438592047022                    10.5        10.5000002980233    0.000153105250411443   4.36402573341379E-007   -0.000956886034210264        1.87720535906401                       0                       0        5.13119283940393  -3.56717723513374E-005        1.73473467494468 
     0.0902255639097744                     0.5                     0.5        2.30451123674113                    10.5        10.5000002980233    0.000154308258044496   4.23871237222618E-007   -0.000909868486219417        1.88530404430221                       0                       0        4.94191897477253  -3.98452047421449E-005         1.7491983896989 
     0.0927318295739348                     0.5                     0.5        2.35463655301204                    10.5        10.5000002980233    0.000155511265677549   4.11339901103857E-007    -0.00086285093822857        1.89340272954042                       0                       0        4.75264511014112  -4.40186371329524E-005        1.76366210445313 
     0.0952380952380952                     0.5                     0.5        2.40476186928295                    10.5        10.5000002980233    0.000156714273310603   3.98808564985096E-007   -0.000815833390237723        1.90150141477862                       0                       0        4.56337124550971    -4.819206952376E-005        1.77812581920736 
     0.0977443609022556                     0.5                     0.5        2.45488718555386                    10.5        10.5000002980233    0.000157917280943656   3.86277228866335E-007   -0.000768815842246876        1.90960010001682                       0                       0        4.37409738087831  -5.23655019145675E-005        1.79258953396158 
      0.100250626566416                     0.5                     0.5        2.50501250182477                    10.5        10.5000002980233    0.000159120278443921   3.73745743735825E-007   -0.000721798283527169        1.91769878786677                       0                       0        4.18482335836496  -5.65389348606247E-005        1.80705325691754 
      0.102756892230576                     0.5                     0.5        2.55513781809568                    10.5        10.5000002980233    0.000160323286076974   3.61214407617064E-007   -0.000674780735536322        1.92579747310497                       0                       0        3.99554949373355  -6.07123672514322E-005        1.82151697167176 
      0.105263157894737                     0.5                     0.5        2.60526313436659                    10.5        10.5000002980233    0.000161526293710028   3.48683071498303E-007   -0.000627763187545475        1.93389615834317                       0                       0        3.80627562910215  -6.48857996422397E-005        1.83598068642599 
      0.107769423558897                     0.5                     0.5         2.6553884506375                    10.5        10.5000002980233    0.000162729301343081   3.36151735379542E-007   -0.000580745639554628        1.94199484358137                       0                       0        3.61700176447074  -6.90592320330473E-005        1.85044440118022 
      0.110275689223058                     0.5                     0.5        2.70551376690841                    10.5        10.5000002980233    0.000163932308976134   3.23620399260781E-007   -0.000533728091563781        1.95009352881958                       0                       0        3.42772789983933  -7.32326644238548E-005        1.86490811593444 
      0.112781954887218                     0.5                     0.5        2.75563908317932                    10.5        10.5000002980233    0.000165135316609187   3.11089063142021E-007   -0.000486710543572934        1.95819221405778                       0                       0        3.23845403520793  -7.74060968146623E-005        1.87937183068867 
      0.115288220551378                     0.5                     0.5        2.80576439945022                    10.5        10.5000002980233    0.000166338324242241    2.9855772702326E-007   -0.000439692995582087        1.96629089929598                       0                       0        3.04918017057652  -8.15795292054698E-005        1.89383554544289 
      0.117794486215539                     0.5                     0.5        2.85588971572113                    10.5        10.5000002980233    0.000167541331875294   2.86026390904499E-007    -0.00039267544759124        1.97438958453418                       0                       0        2.85990630594511  -8.57529615962773E-005        1.90829926019712 
      0.120300751879699                     0.5                     0.5        2.90601503199204                    10.5        10.5000002980233    0.000168744339508347   2.73495054785738E-007   -0.000345657899600393        1.98248826977238                       0                       0        2.67063244131371  -8.99263939870849E-005        1.92276297495135 
       0.12280701754386                     0.5                     0.5        2.95614034826295                    10.5        10.5000002980233      0.0001699473471414   2.60963718666977E-007   -0.000298640351609546        1.99058695501059                       0                       0         2.4813585766823  -9.40998263778924E-005        1.93722668970557 
       0.12531328320802                     0.5                     0.5        3.00626566453386                    10.5        10.5000002980233    0.000171172284584952   2.48432390017473E-007   -0.000252797616002543        1.99772529359078                       0                       0        2.30210848353024  -9.85118052332139E-005        1.94900335184716 
       0.12781954887218                     0.5                     0.5        3.05639098080477                    10.5        10.5000002980233    0.000172550730701991   2.35901113652766E-007   -0.000215178567082445        1.99814120556494                       0                       0        2.19302479073364   -0.000104593609340134        1.94197064570031 
      0.130325814536341                     0.5                     0.5        3.10651629707568                    10.5        10.5000002980233    0.000173929176819029   2.23369837288058E-007   -0.000177559518162346         1.9985571175391                       0                       0        2.08394109793703   -0.000110675413447054        1.93493793955345 
      0.132832080200501                     0.5                     0.5        3.15664161334659                    10.5        10.5000002980233    0.000175307622936068   2.10838560923351E-007   -0.000139940469242248        1.99897302951326                       0                       0        1.97485740514043   -0.000116757217553973        1.92790523340659 
      0.135338345864662                     0.5                     0.5         3.2067669296175                    10.5        10.5000002980233    0.000176686069053107   1.98307284558644E-007    -0.00010232142032215        1.99938894148742                       0                       0        1.86577371234382   -0.000122839021660893        1.92087252725973 
      0.137844611528822                     0.5                     0.5        3.25689224588841                    10.5        10.5000002980233    0.000178064515170146   1.85776008193937E-007  -6.47023714020513E-005        1.99980485346158                       0                       0        1.75669001954721   -0.000128920825767813        1.91383982111288 
      0.140350877192982                     0.5                     0.5        3.30701756215932                    10.5        10.5000002980233    0.000179442961287185   1.73244731829229E-007  -2.70833224819529E-005        2.00022076543573                       0                       0        1.64760632675061   -0.000135002629874733        1.90680711496602 
      0.142857142857143                     0.5                     0.5        3.35714287843023                    10.5        10.5000002980233    0.000180821407404223   1.60713455464522E-007   1.05357264381454E-005        2.00063667740989                       0                       0          1.538522633954   -0.000141084433981653        1.89977440881916 
      0.145363408521303                     0.5                     0.5        3.40726819470114                    10.5        10.5000002980233    0.000182199853521262   1.48182179099815E-007   4.81547753582438E-005        2.00105258938405                       0                       0         1.4294389411574   -0.000147166238088573        1.89274170267231 
      0.147869674185464                     0.5                     0.5        3.45739351097205                    10.5        10.5000002980233    0.000183578299638301   1.35650902735108E-007   8.57738242783421E-005        2.00146850135821                       0                       0        1.32035524836079   -0.000153248042195493        1.88570899652545 
      0.150375939849624                     0.5                     0.5        3.50751882724296                    10.5        10.5000002980233    0.000184956740092893   1.23119775381794E-007    0.000123392859787393        2.00188440937166                       0                       0        1.21127148043178   -0.000159329851032038        1.87867629606922 
      0.152882205513784                     0.5                     0.5        3.55764414351387                    10.5        10.5000002980233    0.000186335186209931   1.10588499017087E-007    0.000161011908707491        2.00230032134582                       0                       0        1.10218778763518   -0.000165411655138958        1.87164358992237 
      0.155388471177945                     0.5                     0.5        3.60776945978478                    10.5        10.5000002980233     0.00018771363232697   9.80572226523796E-008    0.000198630957627589        2.00271623331997                       0                       0       0.993104094838573   -0.000171493459245878        1.86461088377551 
      0.157894736842105                     0.5                     0.5        3.65789477605569                    10.5        10.5000002980233    0.000189092078444009   8.55259462876724E-008    0.000236250006547687        2.00313214529413                       0                       0       0.884020402041967   -0.000177575263352797        1.85757817762865 
      0.160401002506266                     0.5                     0.5         3.7080200923266                    10.5        10.5000002980233    0.000190470524561048   7.29946699229651E-008    0.000273869055467786        2.00354805726829                       0                       0       0.774936709245361   -0.000183657067459717         1.8505454714818 
      0.162907268170426                     0.5                     0.5        3.75814540859751                    10.5        10.5000002980233    0.000191848970678087   6.04633935582579E-008    0.000311488104387884        2.00396396924245                       0                       0       0.665853016448756   -0.000189738871566637        1.84351276533494 
      0.165413533834586                     0.5                     0.5        3.80827072486842                    10.5        10.5000002980233    0.000193227416795126   4.79321171935506E-008    0.000349107153307983        2.00437988121661                       0                       0        0.55676932365215   -0.000195820675673557        1.83648005918808 
      0.167919799498747                     0.5                     0.5        3.85839604113933                    10.5        10.5000002980233    0.000194605862912164   3.54008408288433E-008    0.000386726202228081        2.00479579319077                       0                       0       0.447685630855544   -0.000201902479780477        1.82944735304122 
      0.170426065162907                     0.5                     0.5        3.90852135741024                    10.5        10.5000002980233    0.000195984309029203   2.28695644641361E-008    0.000424345251148179        2.00521170516492                       0                       0       0.338601938058938   -0.000207984283887397        1.82241464689437 
      0.172932330827068                     0.5                     0.5        3.95864667368115                    10.5        10.5000002980233    0.000197362755146242   1.03382880994288E-008    0.000461964300068277        2.00562761713908                       0                       0       0.229518245262332   -0.000214066087994317        1.81538194074751 
      0.175438596491228                     0.5                     0.5        4.00877198995206                    10.5        10.5000002980233    0.000199144712810029   1.56851903904712E-014    0.000497118420317698        2.00567855952889                       0                       0       0.133701264265663   -0.000219829933190843        1.80787630928482 
      0.177944862155388                     0.5                     0.5        4.05889730622297                    10.5        10.5000002980233    0.000202828923526694   1.05316270851237E-013    0.000520652258256226        2.00400894519202                       0                       0       0.100426838064356    -0.00022409484158405        1.79814119112451 
      0.180451127819549                     0.5                     0.5        4.10902262249388                    10.5        10.5000002980233    0.000206513134243359   1.94947351312002E-013    0.000544186096194753        2.00233933085515                       0                       0      0.0671524118630497   -0.000228359749977257        1.78840607296419 
      0.182957393483709                     0.5                     0.5        4.15914793876479                    10.5        10.5000002980233    0.000210197344960024   2.84578431772768E-013     0.00056771993413328        2.00066971651828                       0                       0      0.0338779856617432   -0.000232624658370464        1.77867095480387 
       0.18546365914787                     0.5                     0.5         4.2092732550357                    10.5        10.5000002980233     0.00021388155567669   3.74209512233534E-013    0.000591253772071808        1.99900010218141                       0                       0    0.000603559460436637   -0.000236889566763671        1.76893583664355 
       0.18796992481203                     0.5                     0.5        4.25939857130661                    10.5        10.5000002980233    0.000217565766393355     4.638405926943E-013    0.000614787610010335        1.99733048784454                       0                       0     -0.0326708667408699   -0.000241154475156878        1.75920071848323 
       0.19047619047619                     0.5                     0.5        4.30952388757752                    10.5        10.5000002980233     0.00022124997711002   5.53471673155065E-013    0.000638321447948862        1.99566087350767                       0                       0     -0.0659452929421764   -0.000245419383550085        1.74946560032291 
      0.192982456140351                     0.5                     0.5        4.35964920384843                    10.5        10.5000002980233    0.000224934187826685   6.43102753615831E-013     0.00066185528588739         1.9939912591708                       0                       0     -0.0992197191434828   -0.000249684291943292         1.7397304821626 
      0.195488721804511                     0.5                     0.5        4.40977452011933                    10.5        10.5000002980233     0.00022861839854335   7.32733834076597E-013    0.000685389123825917        1.99232164483393                       0                       0      -0.132494145344789   -0.000253949200336499        1.72999536400228 
      0.197994987468672                     0.5                     0.5        4.45989983639024                    10.5        10.5000002980233    0.000232302609260015   8.22364914537363E-013    0.000708922961764445        1.99065203049706                       0                       0      -0.165768571546096   -0.000258214108729706        1.72026024584196 
      0.200501253132832                     0.5                     0.5        4.51002515266115                    10.5        10.5000002980233     0.00023598682027471   9.11995994998128E-013    0.000732456782715626         1.9889824122413                       0                       0       -0.19904298937326   -0.000262479022229924        1.71052513512362 
      0.203007518796992                     0.5                     0.5        4.56015046893206                    10.5        10.5000002980233    0.000239671030991375   1.00162707545889E-012    0.000755990620654153        1.98731279790443                       0                       0      -0.232317415574567   -0.000266743930623131         1.7007900169633 