TITLE = "dt=10.000000s, t=7200.000000s, nu=0.000015, Lx=1.000000, Ly=1.000000, Lz=1.000000, Nx=22, Ny=22, Nz=22 "
VARIABLES =X, Y, Z, I, J, K, U, V, W, T, Xi, FlagP, P 
ZONE F=POINT, I=22, J=22, K=22
0.000000	0.000000	0.000000	0	0	0	0.000000	0.000000	0.000000	0.666667	0.000000	1.000000	0.000000
0.025000	0.000000	0.000000	1	0	0	0.000000	0.000000	0.000000	0.000000	0.000000	1.000000	0.000000
0.075000	0.000000	0.000000	2	0	0	0.000000	0.000000	0.000000	0.000000	0.000000	1.000000	0.000000
0.125000	0.000000	0.000000	3	0	0	0.000000	0.000000	0.000000	0.000000	0.000000	1.000000	0.000000
0.175000	0.000000	0.000000	4	0	0	0.000000	0.000000	0.000000	0.000000	0.000000	1.000000	0.000000
0.225000	0.000000	0.000000	5	0	0	0.000000	0.000000	0.000000	0.000000	0.000000	1.000000	0.000000
0.275000	0.000000	0.000000	6	0	0	0.000000	0.000000	0.000000	0.000000	0.000000	1.000000	0.000000
0.325000	0.000000	0.000000	7	0	0	0.000000	0.000000	0.000000	0.000000	0.000000	1.000000	0.000000
0.375000	0.000000	0.000000	8	0	0	0.000000	0.000000	0.000000	0.000000	0.000000	1.000000	0.000000
0.425000	0.000000	0.000000	9	0	0	0.000000	0.000000	0.000000	0.000000	0.000000	1.000000	0.000000
0.475000	0.000000	0.000000	10	0	0	0.000000	0.000000	0.000000	0.000000	0.000000	1.000000	0.000000
0.525000	0.000000	0.000000	11	0	0	0.000000	0.000000	0.000000	0.000000	0.000000	1.000000	0.000000
0.575000	0.000000	0.000000	12	0	0	0.000000	0.000000	0.000000	0.000000	0.000000	1.000000	0.000000
0.625000	0.000000	0.000000	13	0	0	0.000000	0.000000	0.000000	0.000000	0.000000	1.000000	0.000000
0.675000	0.000000	0.000000	14	0	0	0.000000	0.000000	0.000000	0.000000	0.000000	1.000000	0.000000
0.725000	0.000000	0.000000	15	0	0	0.000000	0.000000	0.000000	0.000000	0.000000	1.000000	0.000000
0.775000	0.000000	0.000000	16	0	0	0.000000	0.000000	0.000000	0.000000	0.000000	1.000000	0.000000
0.825000	0.000000	0.000000	17	0	0	0.000000	0.000000	0.000000	0.000000	0.000000	1.000000	0.000000
0.875000	0.000000	0.000000	18	0	0	0.000000	0.000000	0.000000	0.000000	0.000000	1.000000	0.000000
0.925000	0.000000	0.000000	19	0	0	0.000000	0.000000	0.000000	0.000000	0.000000	1.000000	0.000000
0.975000	0.000000	0.000000	20	0	0	0.000000	0.000000	0.000000	0.000000	0.000000	1.000000	0.000000
1.000000	0.000000	0.000000	21	0	0	0.000000	0.000000	0.000000	0.000000	0.000000	1.000000	0.000000
0.000000	0.025000	0.000000	0	1	0	0.000000	0.000000	0.000000	1.000000	0.000000	1.000000	0.000000
0.025000	0.025000	0.000000	1	1	0	0.000000	0.000000	0.000000	0.828758	0.000000	1.000000	-0.000006
0.075000	0.025000	0.000000	2	1	0	0.000000	0.000000	0.000000	0.552825	0.000000	1.000000	-0.000006
0.125000	0.025000	0.000000	3	1	0	0.000000	0.000000	0.000000	0.384135	0.000000	1.000000	-0.000006
0.175000	0.025000	0.000000	4	1	0	0.000000	0.000000	0.000000	0.291548	0.000000	1.000000	-0.000006
0.225000	0.025000	0.000000	5	1	0	0.000000	0.000000	0.000000	0.241006	0.000000	1.000000	-0.000005
0.275000	0.025000	0.000000	6	1	0	0.000000	0.000000	0.000000	0.211953	0.000000	1.000000	-0.000005
0.325000	0.025000	0.000000	7	1	0	0.000000	0.000000	0.000000	0.193583	0.000000	1.000000	-0.000005
0.375000	0.025000	0.000000	8	1	0	0.000000	0.000000	0.000000	0.180385	0.000000	1.000000	-0.000005
0.425000	0.025000	0.000000	9	1	0	0.000000	0.000000	0.000000	0.169547	0.000000	1.000000	-0.000005
0.475000	0.025000	0.000000	10	1	0	0.000000	0.000000	0.000000	0.159605	0.000000	1.000000	-0.000005
0.525000	0.025000	0.000000	11	1	0	0.000000	0.000000	0.000000	0.149765	0.000000	1.000000	-0.000005
0.575000	0.025000	0.000000	12	1	0	0.000000	0.000000	0.000000	0.139559	0.000000	1.000000	-0.000005
0.625000	0.025000	0.000000	13	1	0	0.000000	0.000000	0.000000	0.128692	0.000000	1.000000	-0.000005
0.675000	0.025000	0.000000	14	1	0	0.000000	0.000000	0.000000	0.116946	0.000000	1.000000	-0.000005
0.725000	0.025000	0.000000	15	1	0	0.000000	0.000000	0.000000	0.104113	0.000000	1.000000	-0.000004
0.775000	0.025000	0.000000	16	1	0	0.000000	0.000000	0.000000	0.089957	0.000000	1.000000	-0.000004
0.825000	0.025000	0.000000	17	1	0	0.000000	0.000000	0.000000	0.074156	0.000000	1.000000	-0.000004
0.875000	0.025000	0.000000	18	1	0	0.000000	0.000000	0.000000	0.056245	0.000000	1.000000	-0.000004
0.925000	0.025000	0.000000	19	1	0	0.000000	0.000000	0.000000	0.035842	0.000000	1.000000	-0.000004
0.975000	0.025000	0.000000	20	1	0	0.000000	0.000000	0.000000	0.012913	0.000000	1.000000	-0.000004
1.000000	0.025000	0.000000	21	1	0	0.000000	0.000000	0.000000	0.000000	0.000000	1.000000	0.000000
0.000000	0.075000	0.000000	0	2	0	0.000000	0.000000	0.000000	1.000000	0.000000	1.000000	0.000000
0.025000	0.075000	0.000000	1	2	0	0.000000	0.000000	0.000000	0.814678	0.000000	1.000000	-0.000006
0.075000	0.075000	0.000000	2	2	0	0.000000	0.000000	0.000000	0.526660	0.000000	1.000000	-0.000006
0.125000	0.075000	0.000000	3	2	0	0.000000	0.000000	0.000000	0.361224	0.000000	1.000000	-0.000006
0.175000	0.075000	0.000000	4	2	0	0.000000	0.000000	0.000000	0.275345	0.000000	1.000000	-0.000006
0.225000	0.075000	0.000000	5	2	0	0.000000	0.000000	0.000000	0.230091	0.000000	1.000000	-0.000005
0.275000	0.075000	0.000000	6	2	0	0.000000	0.000000	0.000000	0.204372	0.000000	1.000000	-0.000005
0.325000	0.075000	0.000000	7	2	0	0.000000	0.000000	0.000000	0.187932	0.000000	1.000000	-0.000005
0.375000	0.075000	0.000000	8	2	0	0.000000	0.000000	0.000000	0.175839	0.000000	1.000000	-0.000005
0.425000	0.075000	0.000000	9	2	0	0.000000	0.000000	0.000000	0.165639	0.000000	1.000000	-0.000005
0.475000	0.075000	0.000000	10	2	0	0.000000	0.000000	0.000000	0.156087	0.000000	1.000000	-0.000005
0.525000	0.075000	0.000000	11	2	0	0.000000	0.000000	0.000000	0.146522	0.000000	1.000000	-0.000005
0.575000	0.075000	0.000000	12	2	0	0.000000	0.000000	0.000000	0.136574	0.000000	1.000000	-0.000005
0.625000	0.075000	0.000000	13	2	0	0.000000	0.000000	0.000000	0.126017	0.000000	1.000000	-0.000005
0.675000	0.075000	0.000000	14	2	0	0.000000	0.000000	0.000000	0.114679	0.000000	1.000000	-0.000005
0.725000	0.075000	0.000000	15	2	0	0.000000	0.000000	0.000000	0.102379	0.000000	1.000000	-0.000004
0.775000	0.075000	0.000000	16	2	0	0.000000	0.000000	0.000000	0.088856	0.000000	1.000000	-0.000004
0.825000	0.075000	0.000000	17	2	0	0.000000	0.000000	0.000000	0.073615	0.000000	1.000000	-0.000004
0.875000	0.075000	0.000000	18	2	0	0.000000	0.000000	0.000000	0.056124	0.000000	1.000000	-0.000004
0.925000	0.075000	0.000000	19	2	0	0.000000	0.000000	0.000000	0.035963	0.000000	1.000000	-0.000004
0.975000	0.075000	0.000000	20	2	0	0.000000	0.000000	0.000000	0.013132	0.000000	1.000000	-0.000004
1.000000	0.075000	0.000000	21	2	0	0.000000	0.000000	0.000000	0.000000	0.000000	1.000000	0.000000
0.000000	0.125000	0.000000	0	3	0	0.000000	0.000000	0.000000	1.000000	0.000000	1.000000	0.000000
0.025000	0.125000	0.000000	1	3	0	0.000000	0.000000	0.000000	0.803767	0.000000	1.000000	-0.000006
0.075000	0.125000	0.000000	2	3	0	0.000000	0.000000	0.000000	0.505632	0.000000	1.000000	-0.000006
0.125000	0.125000	0.000000	3	3	0	0.000000	0.000000	0.000000	0.341528	0.000000	1.000000	-0.000006
0.175000	0.125000	0.000000	4	3	0	0.000000	0.000000	0.000000	0.260246	0.000000	1.000000	-0.000006
0.225000	0.125000	0.000000	5	3	0	0.000000	0.000000	0.000000	0.219127	0.000000	1.000000	-0.000005
0.275000	0.125000	0.000000	6	3	0	0.000000	0.000000	0.000000	0.196297	0.000000	1.000000	-0.000005
0.325000	0.125000	0.000000	7	3	0	0.000000	0.000000	0.000000	0.181718	0.000000	1.000000	-0.000005
0.375000	0.125000	0.000000	8	3	0	0.000000	0.000000	0.000000	0.170826	0.000000	1.000000	-0.000005
0.425000	0.125000	0.000000	9	3	0	0.000000	0.000000	0.000000	0.161464	0.000000	1.000000	-0.000005
0.475000	0.125000	0.000000	10	3	0	0.000000	0.000000	0.000000	0.152573	0.000000	1.000000	-0.000005
0.525000	0.125000	0.000000	11	3	0	0.000000	0.000000	0.000000	0.143619	0.000000	1.000000	-0.000005
0.575000	0.125000	0.000000	12	3	0	0.000000	0.000000	0.000000	0.134306	0.000000	1.000000	-0.000005
0.625000	0.125000	0.000000	13	3	0	0.000000	0.000000	0.000000	0.124445	0.000000	1.000000	-0.000005
0.675000	0.125000	0.000000	14	3	0	0.000000	0.000000	0.000000	0.113868	0.000000	1.000000	-0.000005
0.725000	0.125000	0.000000	15	3	0	0.000000	0.000000	0.000000	0.102368	0.000000	1.000000	-0.000004
0.775000	0.125000	0.000000	16	3	0	0.000000	0.000000	0.000000	0.089509	0.000000	1.000000	-0.000004
0.825000	0.125000	0.000000	17	3	0	0.000000	0.000000	0.000000	0.074690	0.000000	1.000000	-0.000004
0.875000	0.125000	0.000000	18	3	0	0.000000	0.000000	0.000000	0.057310	0.000000	1.000000	-0.000004
0.925000	0.125000	0.000000	19	3	0	0.000000	0.000000	0.000000	0.036922	0.000000	1.000000	-0.000004
0.975000	0.125000	0.000000	20	3	0	0.000000	0.000000	0.000000	0.013559	0.000000	1.000000	-0.000004
1.000000	0.125000	0.000000	21	3	0	0.000000	0.000000	0.000000	0.000000	0.000000	1.000000	0.000000
0.000000	0.175000	0.000000	0	4	0	0.000000	0.000000	0.000000	1.000000	0.000000	1.000000	0.000000
0.025000	0.175000	0.000000	1	4	0	0.000000	0.000000	0.000000	0.797410	0.000000	1.000000	-0.000006
0.075000	0.175000	0.000000	2	4	0	0.000000	0.000000	0.000000	0.493015	0.000000	1.000000	-0.000006
0.125000	0.175000	0.000000	3	4	0	0.000000	0.000000	0.000000	0.329034	0.000000	1.000000	-0.000006
0.175000	0.175000	0.000000	4	4	0	0.000000	0.000000	0.000000	0.250019	0.000000	1.000000	-0.000006
0.225000	0.175000	0.000000	5	4	0	0.000000	0.000000	0.000000	0.211234	0.000000	1.000000	-0.000005
0.275000	0.175000	0.000000	6	4	0	0.000000	0.000000	0.000000	0.190217	0.000000	1.000000	-0.000005
0.325000	0.175000	0.000000	7	4	0	0.000000	0.000000	0.000000	0.176944	0.000000	1.000000	-0.000005
0.375000	0.175000	0.000000	8	4	0	0.000000	0.000000	0.000000	0.167017	0.000000	1.000000	-0.000005
0.425000	0.175000	0.000000	9	4	0	0.000000	0.000000	0.000000	0.158434	0.000000	1.000000	-0.000005
0.475000	0.175000	0.000000	10	4	0	0.000000	0.000000	0.000000	0.150239	0.000000	1.000000	-0.000005
0.525000	0.175000	0.000000	11	4	0	0.000000	0.000000	0.000000	0.141957	0.000000	1.000000	-0.000005
0.575000	0.175000	0.000000	12	4	0	0.000000	0.000000	0.000000	0.133319	0.000000	1.000000	-0.000005
0.625000	0.175000	0.000000	13	4	0	0.000000	0.000000	0.000000	0.124131	0.000000	1.000000	-0.000005
0.675000	0.175000	0.000000	14	4	0	0.000000	0.000000	0.000000	0.114197	0.000000	1.000000	-0.000005
0.725000	0.175000	0.000000	15	4	0	0.000000	0.000000	0.000000	0.103263	0.000000	1.000000	-0.000004
0.775000	0.175000	0.000000	16	4	0	0.000000	0.000000	0.000000	0.090794	0.000000	1.000000	-0.000004
0.825000	0.175000	0.000000	17	4	0	0.000000	0.000000	0.000000	0.076144	0.000000	1.000000	-0.000004
0.875000	0.175000	0.000000	18	4	0	0.000000	0.000000	0.000000	0.058684	0.000000	1.000000	-0.000004
0.925000	0.175000	0.000000	19	4	0	0.000000	0.000000	0.000000	0.037946	0.000000	1.000000	-0.000004
0.975000	0.175000	0.000000	20	4	0	0.000000	0.000000	0.000000	0.013965	0.000000	1.000000	-0.000004
1.000000	0.175000	0.000000	21	4	0	0.000000	0.000000	0.000000	0.000000	0.000000	1.000000	0.000000
0.000000	0.225000	0.000000	0	5	0	0.000000	0.000000	0.000000	1.000000	0.000000	1.000000	0.000000
0.025000	0.225000	0.000000	1	5	0	0.000000	0.000000	0.000000	0.794168	0.000000	1.000000	-0.000006
0.075000	0.225000	0.000000	2	5	0	0.000000	0.000000	0.000000	0.486382	0.000000	1.000000	-0.000006
0.125000	0.225000	0.000000	3	5	0	0.000000	0.000000	0.000000	0.322110	0.000000	1.000000	-0.000006
0.175000	0.225000	0.000000	4	5	0	0.000000	0.000000	0.000000	0.244013	0.000000	1.000000	-0.000005
0.225000	0.225000	0.000000	5	5	0	0.000000	0.000000	0.000000	0.206345	0.000000	1.000000	-0.000005
0.275000	0.225000	0.000000	6	5	0	0.000000	0.000000	0.000000	0.186305	0.000000	1.000000	-0.000005
0.325000	0.225000	0.000000	7	5	0	0.000000	0.000000	0.000000	0.173826	0.000000	1.000000	-0.000005
0.375000	0.225000	0.000000	8	5	0	0.000000	0.000000	0.000000	0.164556	0.000000	1.000000	-0.000005
0.425000	0.225000	0.000000	9	5	0	0.000000	0.000000	0.000000	0.156553	0.000000	1.000000	-0.000005
0.475000	0.225000	0.000000	10	5	0	0.000000	0.000000	0.000000	0.148893	0.000000	1.000000	-0.000005
0.525000	0.225000	0.000000	11	5	0	0.000000	0.000000	0.000000	0.141113	0.000000	1.000000	-0.000005
0.575000	0.225000	0.000000	12	5	0	0.000000	0.000000	0.000000	0.132942	0.000000	1.000000	-0.000005
0.625000	0.225000	0.000000	13	5	0	0.000000	0.000000	0.000000	0.124169	0.000000	1.000000	-0.000005
0.675000	0.225000	0.000000	14	5	0	0.000000	0.000000	0.000000	0.114576	0.000000	1.000000	-0.000005
0.725000	0.225000	0.000000	15	5	0	0.000000	0.000000	0.000000	0.103894	0.000000	1.000000	-0.000004
0.775000	0.225000	0.000000	16	5	0	0.000000	0.000000	0.000000	0.091582	0.000000	1.000000	-0.000004
0.825000	0.225000	0.000000	17	5	0	0.000000	0.000000	0.000000	0.076986	0.000000	1.000000	-0.000004
0.875000	0.225000	0.000000	18	5	0	0.000000	0.000000	0.000000	0.059467	0.000000	1.000000	-0.000004
0.925000	0.225000	0.000000	19	5	0	0.000000	0.000000	0.000000	0.038535	0.000000	1.000000	-0.000004
0.975000	0.225000	0.000000	20	5	0	0.000000	0.000000	0.000000	0.014204	0.000000	1.000000	-0.000004
1.000000	0.225000	0.000000	21	5	0	0.000000	0.000000	0.000000	0.000000	0.000000	1.000000	0.000000
0.000000	0.275000	0.000000	0	6	0	0.000000	0.000000	0.000000	1.000000	0.000000	1.000000	0.000000
0.025000	0.275000	0.000000	1	6	0	0.000000	0.000000	0.000000	0.792727	0.000000	1.000000	-0.000006
0.075000	0.275000	0.000000	2	6	0	0.000000	0.000000	0.000000	0.483292	0.000000	1.000000	-0.000006
0.125000	0.275000	0.000000	3	6	0	0.000000	0.000000	0.000000	0.318661	0.000000	1.000000	-0.000006
0.175000	0.275000	0.000000	4	6	0	0.000000	0.000000	0.000000	0.240810	0.000000	1.000000	-0.000005
0.225000	0.275000	0.000000	5	6	0	0.000000	0.000000	0.000000	0.203575	0.000000	1.000000	-0.000005
0.275000	0.275000	0.000000	6	6	0	0.000000	0.000000	0.000000	0.183987	0.000000	1.000000	-0.000005
0.325000	0.275000	0.000000	7	6	0	0.000000	0.000000	0.000000	0.171927	0.000000	1.000000	-0.000005
0.375000	0.275000	0.000000	8	6	0	0.000000	0.000000	0.000000	0.163035	0.000000	1.000000	-0.000005
0.425000	0.275000	0.000000	9	6	0	0.000000	0.000000	0.000000	0.155380	0.000000	1.000000	-0.000005
0.475000	0.275000	0.000000	10	6	0	0.000000	0.000000	0.000000	0.148033	0.000000	1.000000	-0.000005
0.525000	0.275000	0.000000	11	6	0	0.000000	0.000000	0.000000	0.140529	0.000000	1.000000	-0.000005
0.575000	0.275000	0.000000	12	6	0	0.000000	0.000000	0.000000	0.132585	0.000000	1.000000	-0.000005
0.625000	0.275000	0.000000	13	6	0	0.000000	0.000000	0.000000	0.123981	0.000000	1.000000	-0.000005
0.675000	0.275000	0.000000	14	6	0	0.000000	0.000000	0.000000	0.114500	0.000000	1.000000	-0.000005
0.725000	0.275000	0.000000	15	6	0	0.000000	0.000000	0.000000	0.103879	0.000000	1.000000	-0.000004
0.775000	0.275000	0.000000	16	6	0	0.000000	0.000000	0.000000	0.091621	0.000000	1.000000	-0.000004
0.825000	0.275000	0.000000	17	6	0	0.000000	0.000000	0.000000	0.077072	0.000000	1.000000	-0.000004
0.875000	0.275000	0.000000	18	6	0	0.000000	0.000000	0.000000	0.059588	0.000000	1.000000	-0.000004
0.925000	0.275000	0.000000	19	6	0	0.000000	0.000000	0.000000	0.038660	0.000000	1.000000	-0.000004
0.975000	0.275000	0.000000	20	6	0	0.000000	0.000000	0.000000	0.014272	0.000000	1.000000	-0.000004
1.000000	0.275000	0.000000	21	6	0	0.000000	0.000000	0.000000	0.000000	0.000000	1.000000	0.000000
0.000000	0.325000	0.000000	0	7	0	0.000000	0.000000	0.000000	1.000000	0.000000	1.000000	0.000000
0.025000	0.325000	0.000000	1	7	0	0.000000	0.000000	0.000000	0.792226	0.000000	1.000000	-0.000006
0.075000	0.325000	0.000000	2	7	0	0.000000	0.000000	0.000000	0.482097	0.000000	1.000000	-0.000006
0.125000	0.325000	0.000000	3	7	0	0.000000	0.000000	0.000000	0.317152	0.000000	1.000000	-0.000006
0.175000	0.325000	0.000000	4	7	0	0.000000	0.000000	0.000000	0.239243	0.000000	1.000000	-0.000005
0.225000	0.325000	0.000000	5	7	0	0.000000	0.000000	0.000000	0.202094	0.000000	1.000000	-0.000005
0.275000	0.325000	0.000000	6	7	0	0.000000	0.000000	0.000000	0.182659	0.000000	1.000000	-0.000005
0.325000	0.325000	0.000000	7	7	0	0.000000	0.000000	0.000000	0.170773	0.000000	1.000000	-0.000005
0.375000	0.325000	0.000000	8	7	0	0.000000	0.000000	0.000000	0.162054	0.000000	1.000000	-0.000005
0.425000	0.325000	0.000000	9	7	0	0.000000	0.000000	0.000000	0.154558	0.000000	1.000000	-0.000005
0.475000	0.325000	0.000000	10	7	0	0.000000	0.000000	0.000000	0.147345	0.000000	1.000000	-0.000005
0.525000	0.325000	0.000000	11	7	0	0.000000	0.000000	0.000000	0.139942	0.000000	1.000000	-0.000005
0.575000	0.325000	0.000000	12	7	0	0.000000	0.000000	0.000000	0.132063	0.000000	1.000000	-0.000005
0.625000	0.325000	0.000000	13	7	0	0.000000	0.000000	0.000000	0.123492	0.000000	1.000000	-0.000005
0.675000	0.325000	0.000000	14	7	0	0.000000	0.000000	0.000000	0.114017	0.000000	1.000000	-0.000005
0.725000	0.325000	0.000000	15	7	0	0.000000	0.000000	0.000000	0.103389	0.000000	1.000000	-0.000004
0.775000	0.325000	0.000000	16	7	0	0.000000	0.000000	0.000000	0.091165	0.000000	1.000000	-0.000004
0.825000	0.325000	0.000000	17	7	0	0.000000	0.000000	0.000000	0.076689	0.000000	1.000000	-0.000004
0.875000	0.325000	0.000000	18	7	0	0.000000	0.000000	0.000000	0.059312	0.000000	1.000000	-0.000004
0.925000	0.325000	0.000000	19	7	0	0.000000	0.000000	0.000000	0.038508	0.000000	1.000000	-0.000004
0.975000	0.325000	0.000000	20	7	0	0.000000	0.000000	0.000000	0.014234	0.000000	1.000000	-0.000004
1.000000	0.325000	0.000000	21	7	0	0.000000	0.000000	0.000000	0.000000	0.000000	1.000000	0.000000
0.000000	0.375000	0.000000	0	8	0	0.000000	0.000000	0.000000	1.000000	0.000000	1.000000	0.000000
0.025000	0.375000	0.000000	1	8	0	0.000000	0.000000	0.000000	0.792154	0.000000	1.000000	-0.000006
0.075000	0.375000	0.000000	2	8	0	0.000000	0.000000	0.000000	0.481798	0.000000	1.000000	-0.000006
0.125000	0.375000	0.000000	3	8	0	0.000000	0.000000	0.000000	0.316613	0.000000	1.000000	-0.000006
0.175000	0.375000	0.000000	4	8	0	0.000000	0.000000	0.000000	0.238544	0.000000	1.000000	-0.000005
0.225000	0.375000	0.000000	5	8	0	0.000000	0.000000	0.000000	0.201333	0.000000	1.000000	-0.000005
0.275000	0.375000	0.000000	6	8	0	0.000000	0.000000	0.000000	0.181903	0.000000	1.000000	-0.000005
0.325000	0.375000	0.000000	7	8	0	0.000000	0.000000	0.000000	0.170056	0.000000	1.000000	-0.000005
0.375000	0.375000	0.000000	8	8	0	0.000000	0.000000	0.000000	0.161385	0.000000	1.000000	-0.000005
0.425000	0.375000	0.000000	9	8	0	0.000000	0.000000	0.000000	0.153931	0.000000	1.000000	-0.000005
0.475000	0.375000	0.000000	10	8	0	0.000000	0.000000	0.000000	0.146745	0.000000	1.000000	-0.000005
0.525000	0.375000	0.000000	11	8	0	0.000000	0.000000	0.000000	0.139350	0.000000	1.000000	-0.000005
0.575000	0.375000	0.000000	12	8	0	0.000000	0.000000	0.000000	0.131463	0.000000	1.000000	-0.000005
0.625000	0.375000	0.000000	13	8	0	0.000000	0.000000	0.000000	0.122872	0.000000	1.000000	-0.000005
0.675000	0.375000	0.000000	14	8	0	0.000000	0.000000	0.000000	0.113377	0.000000	1.000000	-0.000005
0.725000	0.375000	0.000000	15	8	0	0.000000	0.000000	0.000000	0.102739	0.000000	1.000000	-0.000004
0.775000	0.375000	0.000000	16	8	0	0.000000	0.000000	0.000000	0.090556	0.000000	1.000000	-0.000004
0.825000	0.375000	0.000000	17	8	0	0.000000	0.000000	0.000000	0.076168	0.000000	1.000000	-0.000004
0.875000	0.375000	0.000000	18	8	0	0.000000	0.000000	0.000000	0.058920	0.000000	1.000000	-0.000004
0.925000	0.375000	0.000000	19	8	0	0.000000	0.000000	0.000000	0.038270	0.000000	1.000000	-0.000004
0.975000	0.375000	0.000000	20	8	0	0.000000	0.000000	0.000000	0.014159	0.000000	1.000000	-0.000004
1.000000	0.375000	0.000000	21	8	0	0.000000	0.000000	0.000000	0.000000	0.000000	1.000000	0.000000
0.000000	0.425000	0.000000	0	9	0	0.000000	0.000000	0.000000	1.000000	0.000000	1.000000	0.000000
0.025000	0.425000	0.000000	1	9	0	0.000000	0.000000	0.000000	0.792225	0.000000	1.000000	-0.000006
0.075000	0.425000	0.000000	2	9	0	0.000000	0.000000	0.000000	0.481835	0.000000	1.000000	-0.000006
0.125000	0.425000	0.000000	3	9	0	0.000000	0.000000	0.000000	0.316489	0.000000	1.000000	-0.000006
0.175000	0.425000	0.000000	4	9	0	0.000000	0.000000	0.000000	0.238267	0.000000	1.000000	-0.000005
0.225000	0.425000	0.000000	5	9	0	0.000000	0.000000	0.000000	0.200961	0.000000	1.000000	-0.000005
0.275000	0.425000	0.000000	6	9	0	0.000000	0.000000	0.000000	0.181486	0.000000	1.000000	-0.000005
0.325000	0.425000	0.000000	7	9	0	0.000000	0.000000	0.000000	0.169622	0.000000	1.000000	-0.000005
0.375000	0.425000	0.000000	8	9	0	0.000000	0.000000	0.000000	0.160944	0.000000	1.000000	-0.000005
0.425000	0.425000	0.000000	9	9	0	0.000000	0.000000	0.000000	0.153482	0.000000	1.000000	-0.000005
0.475000	0.425000	0.000000	10	9	0	0.000000	0.000000	0.000000	0.146281	0.000000	1.000000	-0.000005
0.525000	0.425000	0.000000	11	9	0	0.000000	0.000000	0.000000	0.138864	0.000000	1.000000	-0.000005
0.575000	0.425000	0.000000	12	9	0	0.000000	0.000000	0.000000	0.130949	0.000000	1.000000	-0.000005
0.625000	0.425000	0.000000	13	9	0	0.000000	0.000000	0.000000	0.122334	0.000000	1.000000	-0.000005
0.675000	0.425000	0.000000	14	9	0	0.000000	0.000000	0.000000	0.112824	0.000000	1.000000	-0.000005
0.725000	0.425000	0.000000	15	9	0	0.000000	0.000000	0.000000	0.102188	0.000000	1.000000	-0.000004
0.775000	0.425000	0.000000	16	9	0	0.000000	0.000000	0.000000	0.090046	0.000000	1.000000	-0.000004
0.825000	0.425000	0.000000	17	9	0	0.000000	0.000000	0.000000	0.075735	0.000000	1.000000	-0.000004
0.875000	0.425000	0.000000	18	9	0	0.000000	0.000000	0.000000	0.058592	0.000000	1.000000	-0.000004
0.925000	0.425000	0.000000	19	9	0	0.000000	0.000000	0.000000	0.038068	0.000000	1.000000	-0.000004
0.975000	0.425000	0.000000	20	9	0	0.000000	0.000000	0.000000	0.014092	0.000000	1.000000	-0.000004
1.000000	0.425000	0.000000	21	9	0	0.000000	0.000000	0.000000	0.000000	0.000000	1.000000	0.000000
0.000000	0.475000	0.000000	0	10	0	0.000000	0.000000	0.000000	1.000000	0.000000	1.000000	0.000000
0.025000	0.475000	0.000000	1	10	0	0.000000	0.000000	0.000000	0.792291	0.000000	1.000000	-0.000006
0.075000	0.475000	0.000000	2	10	0	0.000000	0.000000	0.000000	0.481916	0.000000	1.000000	-0.000006
0.125000	0.475000	0.000000	3	10	0	0.000000	0.000000	0.000000	0.316490	0.000000	1.000000	-0.000006
0.175000	0.475000	0.000000	4	10	0	0.000000	0.000000	0.000000	0.238178	0.000000	1.000000	-0.000005
0.225000	0.475000	0.000000	5	10	0	0.000000	0.000000	0.000000	0.200809	0.000000	1.000000	-0.000005
0.275000	0.475000	0.000000	6	10	0	0.000000	0.000000	0.000000	0.181298	0.000000	1.000000	-0.000005
0.325000	0.475000	0.000000	7	10	0	0.000000	0.000000	0.000000	0.169414	0.000000	1.000000	-0.000005
0.375000	0.475000	0.000000	8	10	0	0.000000	0.000000	0.000000	0.160721	0.000000	1.000000	-0.000005
0.425000	0.475000	0.000000	9	10	0	0.000000	0.000000	0.000000	0.153244	0.000000	1.000000	-0.000005
0.475000	0.475000	0.000000	10	10	0	0.000000	0.000000	0.000000	0.146026	0.000000	1.000000	-0.000005
0.525000	0.475000	0.000000	11	10	0	0.000000	0.000000	0.000000	0.138590	0.000000	1.000000	-0.000005
0.575000	0.475000	0.000000	12	10	0	0.000000	0.000000	0.000000	0.130658	0.000000	1.000000	-0.000005
0.625000	0.475000	0.000000	13	10	0	0.000000	0.000000	0.000000	0.122029	0.000000	1.000000	-0.000005
0.675000	0.475000	0.000000	14	10	0	0.000000	0.000000	0.000000	0.112513	0.000000	1.000000	-0.000005
0.725000	0.475000	0.000000	15	10	0	0.000000	0.000000	0.000000	0.101883	0.000000	1.000000	-0.000004
0.775000	0.475000	0.000000	16	10	0	0.000000	0.000000	0.000000	0.089767	0.000000	1.000000	-0.000004
0.825000	0.475000	0.000000	17	10	0	0.000000	0.000000	0.000000	0.075499	0.000000	1.000000	-0.000004
0.875000	0.475000	0.000000	18	10	0	0.000000	0.000000	0.000000	0.058414	0.000000	1.000000	-0.000004
0.925000	0.475000	0.000000	19	10	0	0.000000	0.000000	0.000000	0.037957	0.000000	1.000000	-0.000004
0.975000	0.475000	0.000000	20	10	0	0.000000	0.000000	0.000000	0.014055	0.000000	1.000000	-0.000004
1.000000	0.475000	0.000000	21	10	0	0.000000	0.000000	0.000000	0.000000	0.000000	1.000000	0.000000
0.000000	0.525000	0.000000	0	11	0	0.000000	0.000000	0.000000	1.000000	0.000000	1.000000	0.000000
0.025000	0.525000	0.000000	1	11	0	0.000000	0.000000	0.000000	0.792292	0.000000	1.000000	-0.000006
0.075000	0.525000	0.000000	2	11	0	0.000000	0.000000	0.000000	0.481917	0.000000	1.000000	-0.000006
0.125000	0.525000	0.000000	3	11	0	0.000000	0.000000	0.000000	0.316491	0.000000	1.000000	-0.000006
0.175000	0.525000	0.000000	4	11	0	0.000000	0.000000	0.000000	0.238179	0.000000	1.000000	-0.000005
0.225000	0.525000	0.000000	5	11	0	0.000000	0.000000	0.000000	0.200810	0.000000	1.000000	-0.000005
0.275000	0.525000	0.000000	6	11	0	0.000000	0.000000	0.000000	0.181299	0.000000	1.000000	-0.000005
0.325000	0.525000	0.000000	7	11	0	0.000000	0.000000	0.000000	0.169414	0.000000	1.000000	-0.000005
0.375000	0.525000	0.000000	8	11	0	0.000000	0.000000	0.000000	0.160721	0.000000	1.000000	-0.000005
0.425000	0.525000	0.000000	9	11	0	0.000000	0.000000	0.000000	0.153244	0.000000	1.000000	-0.000005
0.475000	0.525000	0.000000	10	11	0	0.000000	0.000000	0.000000	0.146027	0.000000	1.000000	-0.000005
0.525000	0.525000	0.000000	11	11	0	0.000000	0.000000	0.000000	0.138591	0.000000	1.000000	-0.000005
0.575000	0.525000	0.000000	12	11	0	0.000000	0.000000	0.000000	0.130658	0.000000	1.000000	-0.000005
0.625000	0.525000	0.000000	13	11	0	0.000000	0.000000	0.000000	0.122029	0.000000	1.000000	-0.000005
0.675000	0.525000	0.000000	14	11	0	0.000000	0.000000	0.000000	0.112513	0.000000	1.000000	-0.000005
0.725000	0.525000	0.000000	15	11	0	0.000000	0.000000	0.000000	0.101883	0.000000	1.000000	-0.000004
0.775000	0.525000	0.000000	16	11	0	0.000000	0.000000	0.000000	0.089767	0.000000	1.000000	-0.000004
0.825000	0.525000	0.000000	17	11	0	0.000000	0.000000	0.000000	0.075499	0.000000	1.000000	-0.000004
0.875000	0.525000	0.000000	18	11	0	0.000000	0.000000	0.000000	0.058414	0.000000	1.000000	-0.000004
0.925000	0.525000	0.000000	19	11	0	0.000000	0.000000	0.000000	0.037957	0.000000	1.000000	-0.000004
0.975000	0.525000	0.000000	20	11	0	0.000000	0.000000	0.000000	0.014055	0.000000	1.000000	-0.000004
1.000000	0.525000	0.000000	21	11	0	0.000000	0.000000	0.000000	0.000000	0.000000	1.000000	0.000000
0.000000	0.575000	0.000000	0	12	0	0.000000	0.000000	0.000000	1.000000	0.000000	1.000000	0.000000
0.025000	0.575000	0.000000	1	12	0	0.000000	0.000000	0.000000	0.792227	0.000000	1.000000	-0.000006
0.075000	0.575000	0.000000	2	12	0	0.000000	0.000000	0.000000	0.481839	0.000000	1.000000	-0.000006
0.125000	0.575000	0.000000	3	12	0	0.000000	0.000000	0.000000	0.316493	0.000000	1.000000	-0.000006
0.175000	0.575000	0.000000	4	12	0	0.000000	0.000000	0.000000	0.238271	0.000000	1.000000	-0.000005
0.225000	0.575000	0.000000	5	12	0	0.000000	0.000000	0.000000	0.200964	0.000000	1.000000	-0.000005
0.275000	0.575000	0.000000	6	12	0	0.000000	0.000000	0.000000	0.181489	0.000000	1.000000	-0.000005
0.325000	0.575000	0.000000	7	12	0	0.000000	0.000000	0.000000	0.169625	0.000000	1.000000	-0.000005
0.375000	0.575000	0.000000	8	12	0	0.000000	0.000000	0.000000	0.160947	0.000000	1.000000	-0.000005
0.425000	0.575000	0.000000	9	12	0	0.000000	0.000000	0.000000	0.153484	0.000000	1.000000	-0.000005
0.475000	0.575000	0.000000	10	12	0	0.000000	0.000000	0.000000	0.146283	0.000000	1.000000	-0.000005
0.525000	0.575000	0.000000	11	12	0	0.000000	0.000000	0.000000	0.138865	0.000000	1.000000	-0.000005
0.575000	0.575000	0.000000	12	12	0	0.000000	0.000000	0.000000	0.130951	0.000000	1.000000	-0.000005
0.625000	0.575000	0.000000	13	12	0	0.000000	0.000000	0.000000	0.122335	0.000000	1.000000	-0.000005
0.675000	0.575000	0.000000	14	12	0	0.000000	0.000000	0.000000	0.112825	0.000000	1.000000	-0.000005
0.725000	0.575000	0.000000	15	12	0	0.000000	0.000000	0.000000	0.102189	0.000000	1.000000	-0.000004
0.775000	0.575000	0.000000	16	12	0	0.000000	0.000000	0.000000	0.090047	0.000000	1.000000	-0.000004
0.825000	0.575000	0.000000	17	12	0	0.000000	0.000000	0.000000	0.075736	0.000000	1.000000	-0.000004
0.875000	0.575000	0.000000	18	12	0	0.000000	0.000000	0.000000	0.058592	0.000000	1.000000	-0.000004
0.925000	0.575000	0.000000	19	12	0	0.000000	0.000000	0.000000	0.038068	0.000000	1.000000	-0.000004
0.975000	0.575000	0.000000	20	12	0	0.000000	0.000000	0.000000	0.014092	0.000000	1.000000	-0.000004
1.000000	0.575000	0.000000	21	12	0	0.000000	0.000000	0.000000	0.000000	0.000000	1.000000	0.000000
0.000000	0.625000	0.000000	0	13	0	0.000000	0.000000	0.000000	1.000000	0.000000	1.000000	0.000000
0.025000	0.625000	0.000000	1	13	0	0.000000	0.000000	0.000000	0.792158	0.000000	1.000000	-0.000006
0.075000	0.625000	0.000000	2	13	0	0.000000	0.000000	0.000000	0.481806	0.000000	1.000000	-0.000006
0.125000	0.625000	0.000000	3	13	0	0.000000	0.000000	0.000000	0.316621	0.000000	1.000000	-0.000006
0.175000	0.625000	0.000000	4	13	0	0.000000	0.000000	0.000000	0.238551	0.000000	1.000000	-0.000005
0.225000	0.625000	0.000000	5	13	0	0.000000	0.000000	0.000000	0.201339	0.000000	1.000000	-0.000005
0.275000	0.625000	0.000000	6	13	0	0.000000	0.000000	0.000000	0.181908	0.000000	1.000000	-0.000005
0.325000	0.625000	0.000000	7	13	0	0.000000	0.000000	0.000000	0.170061	0.000000	1.000000	-0.000005
0.375000	0.625000	0.000000	8	13	0	0.000000	0.000000	0.000000	0.161390	0.000000	1.000000	-0.000005
0.425000	0.625000	0.000000	9	13	0	0.000000	0.000000	0.000000	0.153935	0.000000	1.000000	-0.000005
0.475000	0.625000	0.000000	10	13	0	0.000000	0.000000	0.000000	0.146749	0.000000	1.000000	-0.000005
0.525000	0.625000	0.000000	11	13	0	0.000000	0.000000	0.000000	0.139354	0.000000	1.000000	-0.000005
0.575000	0.625000	0.000000	12	13	0	0.000000	0.000000	0.000000	0.131466	0.000000	1.000000	-0.000005
0.625000	0.625000	0.000000	13	13	0	0.000000	0.000000	0.000000	0.122875	0.000000	1.000000	-0.000005
0.675000	0.625000	0.000000	14	13	0	0.000000	0.000000	0.000000	0.113379	0.000000	1.000000	-0.000005
0.725000	0.625000	0.000000	15	13	0	0.000000	0.000000	0.000000	0.102741	0.000000	1.000000	-0.000004
0.775000	0.625000	0.000000	16	13	0	0.000000	0.000000	0.000000	0.090557	0.000000	1.000000	-0.000004
0.825000	0.625000	0.000000	17	13	0	0.000000	0.000000	0.000000	0.076169	0.000000	1.000000	-0.000004
0.875000	0.625000	0.000000	18	13	0	0.000000	0.000000	0.000000	0.058920	0.000000	1.000000	-0.000004