VARIABLES = "X"
 "Y"
 "Z"
 "I"
 "J"
 "K"
 "U"
 "V"
 "W"
 "T"
 "fu"
 "fv"
 "X Pressure Gradient"
 "Y Pressure Gradient"
 "Z Pressure Gradient"
ZONE
DT=(DOUBLE,DOUBLE,DOUBLE,DOUBLE,DOUBLE,DOUBLE,DOUBLE,DOUBLE,DOUBLE,DOUBLE,DOUBLE,DOUBLE,DOUBLE,DOUBLE,DOUBLE)
                    0.5                     0.5                       0        10.5000002980233                    10.5                       0                       0                       0                       0       0.142308501173255                       0                       0      -0.151566015617152   1.28254056026473E-005      0.0982281835157658 
                    0.5                     0.5      0.0025062656641604        10.5000002980233                    10.5       0.100250625072565  -3.53383459953736E-005                       0   1.25313282733898E-006       0.142308501173255                       0                       0      -0.150978155480247   1.27409129990472E-005       0.103286877445697 
                    0.5                     0.5      0.0050125313283208        10.5000002980233                    10.5       0.200501250145131  -7.06766919907472E-005                       0   2.50626565467795E-006       0.142308501173255                       0                       0      -0.150390295343342    1.2656420395447E-005       0.108345571375628 
                    0.5                     0.5      0.0075187969924812        10.5000002980233                    10.5       0.300751875217696   -0.000106015037986121                       0   3.75939848201692E-006       0.142308501173255                       0                       0      -0.149802435206438   1.25719277918469E-005       0.113404265305558 
                    0.5                     0.5      0.0100250626566416        10.5000002980233                    10.5       0.401002500290261   -0.000141353383981494                       0    5.0125313093559E-006       0.142308501173255                       0                       0      -0.149214575069533   1.24874351882467E-005       0.118462959235489 
                    0.5                     0.5       0.012531328320802        10.5000002980233                    10.5       0.501253125362827   -0.000176691737427456                       0    6.2656650307649E-006       0.142308501173255                       0                       0      -0.148626714638925   1.24029425652591E-005       0.123521654963422 
                    0.5                     0.5      0.0150375939849624        10.5000002980233                    10.5       0.601503750435392    -0.00021203008342283                       0   7.51879785810387E-006       0.142308501173255                       0                       0      -0.148038854502021    1.2318449961659E-005       0.128580348893353 
                    0.5                     0.5      0.0175438596491228        10.5000002980233                    10.5       0.701754375507957   -0.000247368429418203                       0   8.77193068544285E-006       0.142308501173255                       0                       0      -0.147450994365116   1.22339573580588E-005       0.133639042823284 
                    0.5                     0.5      0.0200501253132832        10.5000002980233                    10.5       0.802005000580523   -0.000282706775413577                       0   1.00250635127818E-005       0.142308501173255                       0                       0      -0.146863134228212   1.21494647544587E-005       0.138697736753215 
                    0.5                     0.5      0.0225563909774436        10.5000002980233                    10.5       0.902255625653088    -0.00031804512140895                       0   1.12781963401208E-005       0.142308501173255                       0                       0      -0.146275274091307   1.20649721508585E-005       0.143756430683146 
                    0.5                     0.5       0.025062656641604        10.5000002980233                    10.5        1.00125312531614   -0.000352964923465305  -1.86730293327593E-015   1.25369682292751E-005       0.142317646173904                       0                       0      -0.145671722286036   1.19799546426844E-005       0.148874343195036 
                    0.5                     0.5      0.0275689223057644        10.5000002980233                    10.5        1.05137843598511   -0.000371561412360168  -7.65598643536681E-014   1.40156648703313E-005       0.142683448374762                       0                       0       -0.14445619168264   1.18744657312918E-005       0.156301794486947 
                    0.5                     0.5      0.0300751879699248        10.5000002980233                    10.5        1.10150374665408    -0.00039015790125503   -1.5125242577406E-013   1.54943615113875E-005       0.143049250575619                       0                       0      -0.143240661079244   1.17689768198991E-005       0.163729245778858 
                    0.5                     0.5      0.0325814536340852        10.5000002980233                    10.5        1.15162905732305   -0.000408754390149892  -2.25944987194453E-013   1.69730581524437E-005       0.143415052776477                       0                       0      -0.142025130475848   1.16634879085065E-005       0.171156697070768 
                    0.5                     0.5      0.0350877192982456        10.5000002980233                    10.5        1.20175436799202   -0.000427350879044754  -3.00637548614845E-013   1.84517547934999E-005       0.143780854977335                       0                       0      -0.140809599872451   1.15579989971138E-005       0.178584148362679 
                    0.5                     0.5       0.037593984962406        10.5000002980233                    10.5        1.25187967866099   -0.000445947367939616  -3.75330110035237E-013    1.9930451434556E-005       0.144146657178193                       0                       0      -0.139594069269055   1.14525100857211E-005       0.186011599654589 
                    0.5                     0.5      0.0401002506265664        10.5000002980233                    10.5        1.30200498932996   -0.000464543856834478  -4.50022671455629E-013   2.14091480756122E-005        0.14451245937905                       0                       0      -0.138378538665659   1.13470211743285E-005         0.1934390509465 
                    0.5                     0.5      0.0426065162907268        10.5000002980233                    10.5        1.35213029999893    -0.00048314034572934  -5.24715232876021E-013   2.28878447166684E-005       0.144878261579908                       0                       0      -0.137163008062263   1.12415322629358E-005        0.20086650223841 
                    0.5                     0.5      0.0451127819548872        10.5000002980233                    10.5         1.4022556106679   -0.000501736834624203  -5.99407794296413E-013   2.43665413577246E-005       0.145244063780766                       0                       0      -0.135947477458866   1.11360433515432E-005       0.208293953530321 
                    0.5                     0.5      0.0476190476190476        10.5000002980233                    10.5        1.45238092133687   -0.000520333323519065  -6.74100355716806E-013   2.58452379987808E-005       0.145609865981624                       0                       0       -0.13473194685547   1.10305544401505E-005       0.215721404822231 
                    0.5                     0.5       0.050125313283208        10.5000002980233                    10.5        1.50250623200584   -0.000538929813606012  -7.48793094773038E-013   2.73239361299544E-005       0.145975668521481                       0                       0      -0.133516414945452   1.09250656120146E-005       0.223148860733422 
                    0.5                     0.5      0.0526315789473684        10.5000002980233                    10.5        1.55263154267481   -0.000557526302500874   -8.2348565619343E-013   2.88026327710106E-005       0.146341470722339                       0                       0      -0.132300884342056   1.08195767006219E-005       0.230576312025332 
                    0.5                     0.5      0.0551378446115288        10.5000002980233                    10.5        1.60275685334378   -0.000576122791395736  -8.98178217613822E-013   3.02813294120668E-005       0.146707272923197                       0                       0      -0.131085353738659   1.07140877892293E-005       0.238003763317243 
                    0.5                     0.5      0.0576441102756892        10.5000002980233                    10.5        1.65288216401275   -0.000594719280290598  -9.72870779034214E-013    3.1760026053123E-005       0.147073075124055                       0                       0      -0.129869823135263   1.06085988778366E-005       0.245431214609153 
                    0.5                     0.5      0.0601503759398496        10.5000002980233                    10.5        1.70300747468171   -0.000613315769185461  -1.04756334045461E-012   3.32387226941792E-005       0.147438877324912                       0                       0      -0.128654292531867   1.05031099664439E-005       0.252858665901064 
                    0.5                     0.5        0.06265664160401        10.5000002980233                    10.5        1.75313278535068   -0.000631912258080323    -1.122255901875E-012   3.47174193352353E-005        0.14780467952577                       0                       0      -0.127438761928471   1.03976210550513E-005       0.260286117192975 
                    0.5                     0.5      0.0651629072681704        10.5000002980233                    10.5        1.80325809601965   -0.000650508746975185  -1.19694846329539E-012   3.61961159762915E-005       0.148170481726628                       0                       0      -0.126223231325074   1.02921321436586E-005       0.267713568484885 
                    0.5                     0.5      0.0676691729323308        10.5000002980233                    10.5        1.85338340668862   -0.000669105235870047  -1.27164102471578E-012   3.76748126173477E-005       0.148536283927486                       0                       0      -0.125007700721678    1.0186643232266E-005       0.275141019776796 
                    0.5                     0.5      0.0701754385964912        10.5000002980233                    10.5        1.90350871735759   -0.000687701724764909  -1.34633358613618E-012   3.91535092584039E-005       0.148902086128343                       0                       0      -0.123792170118282   1.00811543208733E-005       0.282568471068706 
                    0.5                     0.5      0.0726817042606516        10.5000002980233                    10.5        1.95363402802656   -0.000706298213659772  -1.42102614755657E-012   4.06322058994601E-005       0.149267888329201                       0                       0      -0.122576639514886   9.97566540948064E-006       0.289995922360617 
                    0.5                     0.5       0.075187969924812        10.5000002980233                    10.5        2.00375933911567    -0.00072399998019043  -1.49347796791485E-012   4.21090228810067E-005       0.149681295938132                       0                       0      -0.121277171257879   9.87045693170442E-006       0.297626481540511 
                    0.5                     0.5      0.0776942355889724        10.5000002980233                    10.5        2.05388465538658   -0.000730666648417237  -1.53829350814524E-012   4.35626569979057E-005        0.15068184697713                       0                       0      -0.118942454195166   9.76870719448164E-006       0.307762080942785 
                    0.5                     0.5      0.0802005012531328        10.5000002980233                    10.5        2.10400997165749   -0.000737333316644044  -1.58310904837562E-012   4.50162911148047E-005       0.151682398016128                       0                       0      -0.116607737132452   9.66695745725886E-006       0.317897680345058 
                    0.5                     0.5      0.0827067669172932        10.5000002980233                    10.5         2.1541352879284   -0.000743999984870852    -1.627924588606E-012   4.64699252317037E-005       0.152682949055127                       0                       0      -0.114273020069739   9.56520772003608E-006       0.328033279747332 
                    0.5                     0.5      0.0852130325814536        10.5000002980233                    10.5        2.20426060419931   -0.000750666653097659  -1.67274012883638E-012   4.79235593486027E-005       0.153683500094125                       0                       0      -0.111938303007025    9.4634579828133E-006       0.338168879149605 
                    0.5                     0.5       0.087719298245614        10.5000002980233                    10.5        2.25438592047022   -0.000757333321324466  -1.71755566906677E-012   4.93771934655017E-005       0.154684051133124                       0                       0      -0.109603585944312   9.36170824559052E-006       0.348304478551879 
                    0.5                     0.5      0.0902255639097744        10.5000002980233                    10.5        2.30451123674113   -0.000763999989551273  -1.76237120929715E-012   5.08308275824007E-005       0.155684602172122                       0                       0      -0.107268868881598   9.25995850836774E-006       0.358440077954153 
                    0.5                     0.5      0.0927318295739348        10.5000002980233                    10.5        2.35463655301204    -0.00077066665777808  -1.80718674952753E-012   5.22844616992997E-005        0.15668515321112                       0                       0      -0.104934151818885   9.15820877114496E-006       0.368575677356426 
                    0.5                     0.5      0.0952380952380952        10.5000002980233                    10.5        2.40476186928295   -0.000777333326004887  -1.85200228975792E-012   5.37380958161987E-005       0.157685704250119                       0                       0      -0.102599434756171   9.05645903392218E-006         0.3787112767587 
                    0.5                     0.5      0.0977443609022556        10.5000002980233                    10.5        2.45488718555386   -0.000783999994231695   -1.8968178299883E-012   5.51917299330977E-005       0.158686255289117                       0                       0      -0.100264717693458    8.9547092966994E-006       0.388846876160973 
                    0.5                     0.5       0.100250626566416        10.5000002980233                    10.5        2.50501250182477   -0.000790666658882229  -1.94163354785442E-012   5.66453646460414E-005       0.159686807067813                       0                       0     -0.0979299980116649   8.85295988151378E-006       0.398982480103394 
                    0.5                     0.5       0.102756892230576        10.5000002980233                    10.5        2.55513781809568   -0.000797333327109036  -1.98644908808481E-012   5.80989987629405E-005       0.160687358106811                       0                       0     -0.0955952809489514     8.751210144291E-006       0.409118079505668 
                    0.5                     0.5       0.105263157894737        10.5000002980233                    10.5        2.60526313436659   -0.000803999995335843  -2.03126462831519E-012   5.95526328798395E-005        0.16168790914581                       0                       0     -0.0932605638862379   8.64946040706823E-006       0.419253678907941 
                    0.5                     0.5       0.107769423558897        10.5000002980233                    10.5         2.6553884506375   -0.000810666663562651  -2.07608016854557E-012   6.10062669967385E-005       0.162688460184808                       0                       0     -0.0909258468235243   8.54771066984545E-006       0.429389278310215 
                    0.5                     0.5       0.110275689223058        10.5000002980233                    10.5        2.70551376690841   -0.000817333331789458  -2.12089570877596E-012   6.24599011136375E-005       0.163689011223807                       0                       0     -0.0885911297608108   8.44596093262267E-006       0.439524877712488 
                    0.5                     0.5       0.112781954887218        10.5000002980233                    10.5        2.75563908317931   -0.000824000000016265  -2.16571124900634E-012   6.39135352305365E-005       0.164689562262805                       0                       0     -0.0862564126980973   8.34421119539989E-006       0.449660477114762 
                    0.5                     0.5       0.115288220551378        10.5000002980233                    10.5        2.80576439945022   -0.000830666668243072  -2.21052678923672E-012   6.53671693474355E-005       0.165690113301803                       0                       0     -0.0839216956353838   8.24246145817711E-006       0.459796076517036 
                    0.5                     0.5       0.117794486215539        10.5000002980233                    10.5        2.85588971572113   -0.000837333336469879  -2.25534232946711E-012   6.68208034643345E-005       0.166690664340802                       0                       0     -0.0815869785726702   8.14071172095433E-006       0.469931675919309 
                    0.5                     0.5       0.120300751879699        10.5000002980233                    10.5        2.90601503199204   -0.000844000004696686  -2.30015786969749E-012   6.82744375812335E-005         0.1676912153798                       0                       0     -0.0792522615099567   8.03896198373154E-006       0.480067275321583 
                    0.5                     0.5        0.12280701754386        10.5000002980233                    10.5        2.95614034826295   -0.000850666672923493  -2.34497340992787E-012   6.97280716981325E-005       0.168691766418798                       0                       0     -0.0769175444472432   7.93721224650877E-006       0.490202874723856 
                    0.5                     0.5        0.12531328320802        10.5000002980233                    10.5        3.00626566453386   -0.000856321436099487  -2.38978895049792E-012   7.11253148607251E-005       0.169762317533991                       0                       0      -0.074510858818492    7.8319611795697E-006       0.500154174107318 
                    0.5                     0.5        0.12781954887218        10.5000002980233                    10.5        3.05639098080477   -0.000854892863919789   -2.4346044934456E-012   7.21278213431727E-005        0.17132286918254                       0                       0     -0.0716003932274776   7.70220080461667E-006       0.508815373359102 
                    0.5                     0.5       0.130325814536341        10.5000002980233                    10.5        3.10651629707568   -0.000853464291740091  -2.47942003639328E-012   7.31303278256203E-005       0.172883420831089                       0                       0     -0.0686899276364632   7.57244042966364E-006       0.517476572610886 
                    0.5                     0.5       0.132832080200501        10.5000002980233                    10.5        3.15664161334659   -0.000852035719560393  -2.52423557934096E-012   7.41328343080679E-005       0.174443972479639                       0                       0     -0.0657794620454487   7.44268005471062E-006       0.526137771862669 
                    0.5                     0.5       0.135338345864662        10.5000002980233                    10.5         3.2067669296175   -0.000850607147380694  -2.56905112228864E-012   7.51353407905155E-005       0.176004524128188                       0                       0     -0.0628689964544343   7.31291967975759E-006       0.534798971114453 
                    0.5                     0.5       0.137844611528822        10.5000002980233                    10.5        3.25689224588841   -0.000849178575200996  -2.61386666523632E-012   7.61378472729631E-005       0.177565075776737                       0                       0     -0.0599585308634198   7.18315930480456E-006       0.543460170366236 
                    0.5                     0.5       0.140350877192982        10.5000002980233                    10.5        3.30701756215932   -0.000847750003021298  -2.65868220818401E-012   7.71403537554107E-005       0.179125627425286                       0                       0     -0.0570480652724054   7.05339892985153E-006        0.55212136961802 
                    0.5                     0.5       0.142857142857143        10.5000002980233                    10.5        3.35714287843023   -0.000846321430841599  -2.70349775113169E-012   7.81428602378583E-005       0.180686179073836                       0                       0      -0.054137599681391    6.9236385548985E-006       0.560782568869803 
                    0.5                     0.5       0.145363408521303        10.5000002980233                    10.5        3.40726819470114   -0.000844892858661901  -2.74831329407937E-012   7.91453667203059E-005       0.182246730722385                       0                       0     -0.0512271340903765   6.79387817994547E-006       0.569443768121587 
                    0.5                     0.5       0.147869674185464        10.5000002980233                    10.5        3.45739351097205   -0.000843464286482203  -2.79312883702705E-012   8.01478732027534E-005       0.183807282370934                       0                       0     -0.0483166684993621   6.66411780499244E-006       0.578104967373371 
                    0.5                     0.5       0.150375939849624        10.5000002980233                    10.5        3.50751882724296   -0.000842035710428189  -2.83794420233902E-012   8.11503796852032E-005       0.185367834950504                       0                       0     -0.0454061995981729   6.53435786298751E-006       0.586766167621886 
                    0.5                     0.5       0.152882205513784        10.5000002980233                    10.5        3.55764414351387   -0.000840607138248491   -2.8827597452867E-012   8.21528861676508E-005       0.186928386599053                       0                       0     -0.0424957340071585   6.40459748803448E-006        0.59542736687367 
                    0.5                     0.5       0.155388471177945        10.5000002980233                    10.5        3.60776945978478   -0.000839178566068792  -2.92757528823439E-012   8.31553926500984E-005       0.188488938247602                       0                       0      -0.039585268416144   6.27483711308145E-006       0.604088566125453 
                    0.5                     0.5       0.157894736842105        10.5000002980233                    10.5        3.65789477605569   -0.000837749993889094  -2.97239083118207E-012    8.4157899132546E-005       0.190049489896151                       0                       0     -0.0366748028251296   6.14507673812842E-006       0.612749765377237 
                    0.5                     0.5       0.160401002506266        10.5000002980233                    10.5         3.7080200923266   -0.000836321421709396  -3.01720637412975E-012   8.51604056149936E-005       0.191610041544701                       0                       0     -0.0337643372341151   6.01531636317539E-006       0.621410964629021 
                    0.5                     0.5       0.162907268170426        10.5000002980233                    10.5        3.75814540859751   -0.000834892849529697  -3.06202191707743E-012   8.61629120974411E-005        0.19317059319325                       0                       0     -0.0308538716431007   5.88555598822236E-006       0.630072163880804 
                    0.5                     0.5       0.165413533834586        10.5000002980233                    10.5        3.80827072486842   -0.000833464277349999  -3.10683746002511E-012   8.71654185798888E-005       0.194731144841799                       0                       0     -0.0279434060520863   5.75579561326934E-006       0.638733363132588 
                    0.5                     0.5       0.167919799498747        10.5000002980233                    10.5        3.85839604113933   -0.000832035705170301  -3.15165300297279E-012   8.81679250623363E-005       0.196291696490349                       0                       0     -0.0250329404610718    5.6260352383163E-006       0.647394562384371 
                    0.5                     0.5       0.170426065162907        10.5000002980233                    10.5        3.90852135741024   -0.000830607132990602  -3.19646854592048E-012   8.91704315447839E-005       0.197852248138898                       0                       0     -0.0221224748700574   5.49627486336328E-006       0.656055761636155 
                    0.5                     0.5       0.172932330827068        10.5000002980233                    10.5        3.95864667368115   -0.000829178560810904  -3.24128408886816E-012   9.01729380272315E-005       0.199412799787447                       0                       0     -0.0192120092790429   5.36651448841025E-006       0.664716960887939 
                    0.5                     0.5       0.175438596491228        10.5000002980233                    10.5        4.00877198995206   -0.000826956123878127  -3.27825685850927E-012   9.10745665910797E-005       0.201031928498233                       0                       0     -0.0163418384932166   5.21240698781307E-006       0.672759863065892 
                    0.5                     0.5       0.177944862155388        10.5000002980233                    10.5        4.05889730622297    -0.00082099121250494  -3.27825685850927E-012   9.15006317412659E-005       0.202927203942282                       0                       0     -0.0136616273672855   4.94352112595566E-006       0.677887960188682 
                    0.5                     0.5       0.180451127819549        10.5000002980233                    10.5        4.10902262249388   -0.000815026301131752  -3.27825685850927E-012   9.19266968914521E-005        0.20482247938633                       0                       0     -0.0109814162413544   4.67463526409826E-006       0.683016057311471 
                    0.5                     0.5       0.182957393483709        10.5000002980233                    10.5        4.15914793876479   -0.000809061389758565  -3.27825685850927E-012   9.23527620416383E-005       0.206717754830379                       0                       0    -0.00830120511542332   4.40574940224085E-006       0.688144154434261 
                    0.5                     0.5        0.18546365914787        10.5000002980233                    10.5         4.2092732550357   -0.000803096478385377  -3.27825685850927E-012   9.27788271918245E-005       0.208613030274427                       0                       0    -0.00562099398949224   4.13686354038344E-006       0.693272251557051 
                    0.5                     0.5        0.18796992481203        10.5000002980233                    10.5        4.25939857130661    -0.00079713156701219  -3.27825685850926E-012   9.32048923420107E-005       0.210508305718476                       0                       0    -0.00294078286356116   3.86797767852603E-006        0.69840034867984 
                    0.5                     0.5        0.19047619047619        10.5000002980233                    10.5        4.30952388757752   -0.000791166655639003  -3.27825685850927E-012   9.36309574921969E-005       0.212403581162524                       0                       0   -0.000260571737630078   3.59909181666862E-006        0.70352844580263 
                    0.5                     0.5       0.192982456140351        10.5000002980233                    10.5        4.35964920384843   -0.000785201744265815  -3.27825685850927E-012   9.40570226423831E-005       0.214298856606573                       0                       0       0.002419639388301   3.33020595481122E-006        0.70865654292542 
                    0.5                     0.5       0.195488721804511        10.5000002980233                    10.5        4.40977452011933   -0.000779236832892628  -3.27825685850926E-012   9.44830877925692E-005       0.216194132050621                       0                       0     0.00509985051423209   3.06132009295381E-006        0.71378464004821 
                    0.5                     0.5       0.197994987468672        10.5000002980233                    10.5        4.45989983639024   -0.000773271921519441  -3.27825685850927E-012   9.49091529427554E-005        0.21808940749467                       0                       0     0.00778006164016317    2.7924342310964E-006          0.718912737171 
                    0.5                     0.5       0.200501253132832        10.5000002980233                    10.5        4.51002515266115   -0.000767307006569981  -3.27825685850927E-012    9.5335217794916E-005        0.21998468377572                       0                       0      0.0104602758752902   2.52354906313873E-006       0.724040830964682 
                    0.5                     0.5       0.203007518796992        10.5000002980233                    10.5        4.56015046893206   -0.000761342095196793  -3.27825685850926E-012   9.57612829451022E-005       0.221879959219769                       0                       0      0.0131404870012213   2.25466320128132E-006       0.729168928087472 