VARIABLES = "X"
 "Y"
 "Z"
 "I"
 "J"
 "K"
 "U"
 "V"
 "W"
 "T"
 "fu"
 "fv"
 "X Pressure Gradient"
 "Y Pressure Gradient"
 "Z Pressure Gradient"
ZONE
DT=(DOUBLE,DOUBLE,DOUBLE,DOUBLE,DOUBLE,DOUBLE,DOUBLE,DOUBLE,DOUBLE,DOUBLE,DOUBLE,DOUBLE,DOUBLE,DOUBLE,DOUBLE)
                      0                     0.5                     0.5                       0        10.5000002980233                    10.5                       0                       0                       0                       1                       0                       0       -4.53128504753695  -3.53882858917615E-006       0.115172170102308 
     0.0025062656641604                     0.5                     0.5       0.100250625072565        10.5000002980233                    10.5   2.60651658722117E-006  -5.01253181083167E-008    0.000111077686419015       0.987596892061271                       0                       0        -4.5024575528218  -4.24468180929317E-006       0.131340369695752 
     0.0050125313283208                     0.5                     0.5       0.200501250145131        10.5000002980233                    10.5   5.21303317444235E-006  -1.00250636216633E-007     0.00022215537283803       0.975193784122542                       0                       0       -4.47363005810664  -4.95053502941016E-006       0.147508569289197 
     0.0075187969924812                     0.5                     0.5       0.300751875217696        10.5000002980233                    10.5   7.81954976166352E-006   -1.5037595432495E-007    0.000333233059257045       0.962790676183813                       0                       0       -4.44480256339148  -5.65638824952716E-006       0.163676768882641 
     0.0100250626566416                     0.5                     0.5       0.401002500290261        10.5000002980233                    10.5   1.04260663488847E-005  -2.00501272433267E-007     0.00044431074567606       0.950387568245083                       0                       0       -4.41597506867632  -6.36224146964413E-006       0.179844968476086 
      0.012531328320802                     0.5                     0.5       0.501253125362827        10.5000002980233                    10.5   1.30325829361059E-005  -2.50624802401741E-007    0.000555388432095075       0.937984460306354                       0                       0       -4.38714757396059  -7.06769671903872E-006       0.196013168068975 
     0.0150375939849624                     0.5                     0.5       0.601503750435392        10.5000002980233                    10.5    1.5639099523327E-005  -3.00750120510057E-007     0.00066646611851409       0.925581352367625                       0                       0       -4.35832007924543  -7.77354993915573E-006        0.21218136766242 
     0.0175438596491228                     0.5                     0.5       0.701754375507957        10.5000002980233                    10.5   1.82456161105482E-005  -3.50875438618374E-007    0.000777543804933105       0.913178244428896                       0                       0       -4.32949258453027  -8.47940315927265E-006       0.228349567255864 
     0.0200501253132832                     0.5                     0.5       0.802005000580523        10.5000002980233                    10.5   2.08521326977694E-005  -4.01000756726691E-007     0.00088862149135212       0.900775136490167                       0                       0       -4.30066508981511  -9.18525637938972E-006       0.244517766849309 
     0.0225563909774436                     0.5                     0.5       0.902255625653088        10.5000002980233                    10.5   2.34586492849906E-005  -4.51126074835008E-007    0.000999699177771136       0.888372028551438                       0                       0       -4.27183759509995  -9.89110959950669E-006       0.260685966442753 
      0.025062656641604                     0.5                     0.5        1.00125312531614        10.5000002980233                    10.5   2.60231861779966E-005  -4.99371704713475E-007     0.00110835018710709       0.876007182655361                       0                       0       -4.24260744402236   -1.0595959144016E-005       0.276825816675982 
     0.0275689223057644                     0.5                     0.5        1.05137843598511        10.5000002980233                    10.5   2.69505050128351E-005  -4.74309046592974E-007     0.00112236021308193       0.865134565522366                       0                       0       -4.19767359904842  -1.12616651011261E-005       0.291860035118628 
     0.0300751879699248                     0.5                     0.5        1.10150374665408        10.5000002980233                    10.5   2.78778238476737E-005  -4.49246388472472E-007     0.00113637023905677       0.854261948389371                       0                       0       -4.15273975407448  -1.19273710582366E-005       0.306894253561274 
     0.0325814536340852                     0.5                     0.5        1.15162905732305        10.5000002980233                    10.5   2.88051426825122E-005  -4.24183730351971E-007     0.00115038026503161       0.843389331256377                       0                       0       -4.10780590910055  -1.25930770153468E-005        0.32192847200392 
     0.0350877192982456                     0.5                     0.5        1.20175436799202        10.5000002980233                    10.5   2.97324615173508E-005  -3.99121072231469E-007     0.00116439029100645       0.832516714123381                       0                       0       -4.06287206412661   -1.3258782972457E-005       0.336962690446566 
      0.037593984962406                     0.5                     0.5        1.25187967866099        10.5000002980233                    10.5   3.06597803521893E-005  -3.74058414110968E-007     0.00117840031698129       0.821644096990386                       0                       0       -4.01793821915267  -1.39244889295673E-005       0.351996908889212 
     0.0401002506265664                     0.5                     0.5        1.30200498932996        10.5000002980233                    10.5   3.15870991870278E-005  -3.48995755990466E-007     0.00119241034295613       0.810771479857391                       0                       0       -3.97300437417873  -1.45901948866776E-005       0.367031127331858 
     0.0426065162907268                     0.5                     0.5        1.35213029999893        10.5000002980233                    10.5   3.25144180218664E-005  -3.23933097869964E-007     0.00120642036893097       0.799898862724396                       0                       0       -3.92807052920479  -1.52559008437878E-005       0.382065345774503 
     0.0451127819548872                     0.5                     0.5         1.4022556106679        10.5000002980233                    10.5   3.34417368567049E-005  -2.98870439749463E-007     0.00122043039490581       0.789026245591401                       0                       0       -3.88313668423085  -1.59216068008982E-005       0.397099564217149 
     0.0476190476190476                     0.5                     0.5        1.45238092133687        10.5000002980233                    10.5   3.43690556915435E-005  -2.73807781628961E-007     0.00123444042088065       0.778153628458406                       0                       0       -3.83820283925692  -1.65873127580084E-005       0.412133782659795 
      0.050125313283208                     0.5                     0.5        1.50250623200584        10.5000002980233                    10.5    3.5296374526382E-005   -2.4874273932189E-007     0.00124845044685549       0.767281011324967                       0                       0        -3.7932689942807  -1.72522435239231E-005       0.427168001101402 
     0.0526315789473684                     0.5                     0.5        1.55263154267481        10.5000002980233                    10.5   3.62236933612206E-005  -2.23680081201388E-007     0.00126246047283033       0.756408394191972                       0                       0       -3.74833514930677  -1.79179494810333E-005       0.442202219544048 
     0.0551378446115288                     0.5                     0.5        1.60275685334378        10.5000002980233                    10.5   3.71510121960591E-005  -1.98617423080887E-007     0.00127647049880516       0.745535777058977                       0                       0       -3.70340130433283  -1.85836554381436E-005       0.457236437986694 
     0.0576441102756892                     0.5                     0.5        1.65288216401275        10.5000002980233                    10.5   3.80783310308977E-005  -1.73554764960386E-007        0.00129048052478       0.734663159925982                       0                       0       -3.65846745935889  -1.92493613952542E-005        0.47227065642934 
     0.0601503759398496                     0.5                     0.5        1.70300747468172        10.5000002980233                    10.5   3.90056498657362E-005  -1.48492106839884E-007     0.00130449055075484       0.723790542792987                       0                       0       -3.61353361438495  -1.99150673523642E-005       0.487304874871986 
       0.06265664160401                     0.5                     0.5        1.75313278535068        10.5000002980233                    10.5   3.99329687005747E-005  -1.23429448719382E-007     0.00131850057672968       0.712917925659992                       0                       0       -3.56859976941101  -2.05807733094745E-005       0.502339093314632 
     0.0651629072681704                     0.5                     0.5        1.80325809601965        10.5000002980233                    10.5   4.08602875354133E-005  -9.83667905988805E-008     0.00133251060270452       0.702045308526997                       0                       0       -3.52366592443708  -2.12464792665847E-005       0.517373311757278 
     0.0676691729323308                     0.5                     0.5        1.85338340668862        10.5000002980233                    10.5   4.17876063702518E-005  -7.33041324783793E-008     0.00134652062867936       0.691172691394002                       0                       0       -3.47873207946314   -2.1912185223695E-005       0.532407530199924 
     0.0701754385964912                     0.5                     0.5        1.90350871735759        10.5000002980233                    10.5   4.27149252050904E-005  -4.82414743578769E-008      0.0013605306546542       0.680300074261007                       0                       0        -3.4337982344892  -2.25778911808052E-005        0.54744174864257 
     0.0726817042606516                     0.5                     0.5        1.95363402802656        10.5000002980233                    10.5   4.36422440399289E-005  -2.31788162373752E-008     0.00137454068062904       0.669427457128012                       0                       0       -3.38886438951526  -2.32435971379156E-005       0.562475967085216 
      0.075187969924812                     0.5                     0.5        2.00375933911567        10.5000002980233                    10.5   4.43496415450423E-005   4.17232641250386E-012     0.00138589473354385       0.658856086991691                       0                       0       -3.34238457333427  -2.38805233680863E-005       0.577038912672296 
     0.0776942355889724                     0.5                     0.5        2.05388465538658        10.5000002980233                    10.5   4.23446294919213E-005   4.17232641250386E-012     0.00136449122390922       0.652000160164981                       0                       0       -3.27683745211281  -2.41624935486023E-005       0.585789393413101 
     0.0802005012531328                     0.5                     0.5        2.10400997165749        10.5000002980233                    10.5   4.03396174388003E-005   4.17232641250386E-012     0.00134308771427459        0.64514423333827                       0                       0       -3.21129033089136  -2.44444637291182E-005       0.594539874153907 
     0.0827067669172932                     0.5                     0.5         2.1541352879284        10.5000002980233                    10.5   3.83346053856793E-005   4.17232641250386E-012     0.00132168420463997        0.63828830651156                       0                       0        -3.1457432096699  -2.47264339096344E-005       0.603290354894713 
     0.0852130325814536                     0.5                     0.5        2.20426060419931        10.5000002980233                    10.5   3.63295933325583E-005   4.17232641250386E-012     0.00130028069500534       0.631432379684849                       0                       0       -3.08019608844845  -2.50084040901501E-005       0.612040835635518 
      0.087719298245614                     0.5                     0.5        2.25438592047022        10.5000002980233                    10.5   3.43245812794373E-005   4.17232641208035E-012     0.00127887718537071       0.624576452858139                       0                       0       -3.01464896722699  -2.52903742706663E-005       0.620791316376324 
     0.0902255639097744                     0.5                     0.5        2.30451123674113        10.5000002980233                    10.5   3.23195692263163E-005   4.17232641250386E-012     0.00125747367573608       0.617720526031428                       0                       0       -2.94910184600554  -2.55723444511822E-005       0.629541797117129 
     0.0927318295739348                     0.5                     0.5        2.35463655301204        10.5000002980233                    10.5   3.03145571731953E-005   4.17232641250386E-012     0.00123607016610145       0.610864599204718                       0                       0       -2.88355472478408  -2.58543146316982E-005       0.638292277857935 
     0.0952380952380952                     0.5                     0.5        2.40476186928295        10.5000002980233                    10.5   2.83095451200743E-005   4.17232641250386E-012     0.00121466665646682       0.604008672378007                       0                       0       -2.81800760356263  -2.61362848122142E-005       0.647042758598741 
     0.0977443609022556                     0.5                     0.5        2.45488718555386        10.5000002980233                    10.5   2.63045330669534E-005   4.17232641250386E-012     0.00119326314683219       0.597152745551297                       0                       0       -2.75246048234118  -2.64182549927302E-005       0.655793239339546 
      0.100250626566416                     0.5                     0.5        2.50501250182477        10.5000002980233                    10.5   2.42995210138324E-005    3.8743032524833E-012     0.00117185963719757       0.590296818724728                       0                       0       -2.68691336111723  -2.66998540811367E-005       0.664543720080014 
      0.102756892230576                     0.5                     0.5        2.55513781809568        10.5000002980233                    10.5   2.22945089607114E-005    3.8743032524833E-012     0.00115045612756294       0.583440891898018                       0                       0       -2.62136623989578  -2.69818242616527E-005        0.67329420082082 
      0.105263157894737                     0.5                     0.5        2.60526313436659        10.5000002980233                    10.5   2.02894969075904E-005    3.8743032524833E-012     0.00112905261792831       0.576584965071307                       0                       0       -2.55581911867432  -2.72637944421687E-005       0.682044681561625 
      0.107769423558897                     0.5                     0.5         2.6553884506375        10.5000002980233                    10.5   1.82844848544694E-005   3.87430325205979E-012     0.00110764910829368       0.569729038244597                       0                       0       -2.49027199745287  -2.75457646226846E-005       0.690795162302431 
      0.110275689223058                     0.5                     0.5        2.70551376690841        10.5000002980233                    10.5   1.62794728013484E-005   3.87430325269506E-012     0.00108624559865905       0.562873111417886                       0                       0       -2.42472487623141  -2.78277348032005E-005       0.699545643043237 
      0.112781954887218                     0.5                     0.5        2.75563908317931        10.5000002980233                    10.5   1.42744607482274E-005   3.87430325216567E-012     0.00106484208902442       0.556017184591176                       0                       0       -2.35917775500996  -2.81097049837168E-005       0.708296123784042 
      0.115288220551378                     0.5                     0.5        2.80576439945022        10.5000002980233                    10.5   1.22694486951064E-005   3.87430325258918E-012     0.00104343857938979       0.549161257764465                       0                       0       -2.29363063378851  -2.83916751642326E-005       0.717046604524848 
      0.117794486215539                     0.5                     0.5        2.85588971572113        10.5000002980233                    10.5   1.02644366419854E-005   3.87430325205979E-012     0.00102203506975516       0.542305330937755                       0                       0       -2.22808351256705  -2.86736453447489E-005       0.725797085265653 
      0.120300751879699                     0.5                     0.5        2.90601503199204        10.5000002980233                    10.5   8.25942458886442E-006   3.87430325280094E-012     0.00100063156012054       0.535449404111044                       0                       0        -2.1625363913456  -2.89556155252645E-005       0.734547566006459 
       0.12280701754386                     0.5                     0.5        2.95614034826295        10.5000002980233                    10.5   6.25441253574343E-006    3.8743032518745E-012    0.000979228050485907       0.528593477284334                       0                       0       -2.09698927012414  -2.92375857057805E-005       0.743298046747264 
       0.12531328320802                     0.5                     0.5        3.00626566453386        10.5000002980233                    10.5   4.11468862674525E-006  -1.56254093585428E-009    0.000957689829496877       0.522226317350287                       0                       0       -2.03235089664572  -2.94747972559473E-005       0.751185339581272 
       0.12781954887218                     0.5                     0.5        3.05639098080477        10.5000002980233                    10.5   1.03198172660681E-006  -1.40938628487075E-008    0.000935208629027037        0.51928052566489                       0                       0       -1.97407375736855  -2.93986983936699E-005       0.753030317067697 
      0.130325814536341                     0.5                     0.5        3.10651629707568        10.5000002980233                    10.5  -2.05072517353163E-006  -2.66251847615603E-008    0.000912727428557197       0.516334733979492                       0                       0       -1.91579661809137  -2.93225995313924E-005       0.754875294554121 
      0.132832080200501                     0.5                     0.5        3.15664161334659        10.5000002980233                    10.5  -5.13343207367008E-006   -3.9156506674414E-008    0.000890246228087358       0.513388942294095                       0                       0        -1.8575194788142   -2.9246500669115E-005       0.756720272040545 
      0.135338345864662                     0.5                     0.5         3.2067669296175        10.5000002980233                    10.5  -8.21613897380852E-006  -5.16878285872659E-008    0.000867765027617518       0.510443150608697                       0                       0       -1.79924233953702  -2.91704018068374E-005        0.75856524952697 
      0.137844611528822                     0.5                     0.5        3.25689224588841        10.5000002980233                    10.5   -1.1298845873947E-005  -6.42191505001196E-008    0.000845283827147679       0.507497358923299                       0                       0       -1.74096520025985    -2.909430294456E-005       0.760410227013394 
      0.140350877192982                     0.5                     0.5        3.30701756215932        10.5000002980233                    10.5  -1.43815527740854E-005  -7.67504724129719E-008    0.000822802626677839       0.504551567237902                       0                       0       -1.68268806098268  -2.90182040822826E-005       0.762255204499818 
      0.142857142857143                     0.5                     0.5        3.35714287843023        10.5000002980233                    10.5  -1.74642596742239E-005  -8.92817943258256E-008    0.000800321426207999       0.501605775552504                       0                       0        -1.6244109217055  -2.89421052200049E-005       0.764100181986242 
      0.145363408521303                     0.5                     0.5        3.40726819470114        10.5000002980233                    10.5  -2.05469665743623E-005  -1.01813116238678E-007    0.000777840225738159       0.498659983867107                       0                       0       -1.56613378242833  -2.88660063577276E-005       0.765945159472667 
      0.147869674185464                     0.5                     0.5        3.45739351097205        10.5000002980233                    10.5  -2.36296734745007E-005  -1.14344438151531E-007     0.00075535902526832       0.495714192181709                       0                       0       -1.50785664315115  -2.87899074954502E-005       0.767790136959091 
      0.150375939849624                     0.5                     0.5        3.50751882724296        10.5000002980233                    10.5  -2.67123803746392E-005   -1.2687739919285E-007     0.00073287782479848       0.492768400496311                       0                       0       -1.44957950387322  -2.87141862478446E-005       0.769635114446439 
      0.152882205513784                     0.5                     0.5        3.55764414351387        10.5000002980233                    10.5  -2.97950872747776E-005  -1.39408721105703E-007     0.00071039662432864       0.489822608810914                       0                       0       -1.39130236459604  -2.86380873855673E-005       0.771480091932863 
      0.155388471177945                     0.5                     0.5        3.60776945978478        10.5000002980233                    10.5  -3.28777941749161E-005  -1.51940043018556E-007    0.000687915423858801       0.486876817125516                       0                       0       -1.33302522531887  -2.85619885232898E-005       0.773325069419287 
      0.157894736842105                     0.5                     0.5        3.65789477605569        10.5000002980233                    10.5  -3.59605010750545E-005  -1.64471364931409E-007    0.000665434223388961       0.483931025440119                       0                       0       -1.27474808604169  -2.84858896610126E-005       0.775170046905712 
      0.160401002506266                     0.5                     0.5         3.7080200923266        10.5000002980233                    10.5   -3.9043207975193E-005  -1.77002686844262E-007    0.000642953022919121       0.480985233754721                       0                       0       -1.21647094676452  -2.84097907987349E-005       0.777015024392136 
      0.162907268170426                     0.5                     0.5        3.75814540859751        10.5000002980233                    10.5  -4.21259148753314E-005  -1.89534008757115E-007    0.000620471822449282       0.478039442069323                       0                       0       -1.15819380748735  -2.83336919364573E-005        0.77886000187856 
      0.165413533834586                     0.5                     0.5        3.80827072486842        10.5000002980233                    10.5  -4.52086217754699E-005  -2.02065330669968E-007    0.000597990621979442       0.475093650383926                       0                       0       -1.09991666821017  -2.82575930741797E-005       0.780704979364985 
      0.167919799498747                     0.5                     0.5        3.85839604113933        10.5000002980233                    10.5  -4.82913286756083E-005  -2.14596652582821E-007    0.000575509421509602       0.472147858698528                       0                       0         -1.041639528933  -2.81814942119022E-005       0.782549956851409 
      0.170426065162907                     0.5                     0.5        3.90852135741024        10.5000002980233                    10.5  -5.13740355757467E-005  -2.27127974495674E-007    0.000553028221039763       0.469202067013131                       0                       0      -0.983362389655823  -2.81053953496253E-005       0.784394934337833 
      0.172932330827068                     0.5                     0.5        3.95864667368115        10.5000002980233                    10.5  -5.44567424758852E-005  -2.39659296408527E-007    0.000530547020569923       0.466256275327733                       0                       0      -0.925085250378649  -2.80292964873475E-005       0.786239911824257 
      0.175438596491228                     0.5                     0.5        4.00877198995206        10.5000002980233                    10.5  -5.73727815743361E-005  -2.49997622085477E-007    0.000509421091506605       0.463708291689695                       0                       0      -0.871047354841583  -2.79660233115319E-005       0.787827651154572 
      0.177944862155388                     0.5                     0.5        4.05889730622297        10.5000002980233                    10.5   -5.9503107507622E-005  -2.49997622085477E-007    0.000494684246451687       0.463035673400299                       0                       0      -0.836994300906936  -2.79632135881832E-005       0.788202706308385 
      0.180451127819549                     0.5                     0.5        4.10902262249388        10.5000002980233                    10.5  -6.16334334409078E-005  -2.49997622085477E-007    0.000479947401396769       0.462363055110902                       0                       0      -0.802941246972289  -2.79604038648351E-005       0.788577761462198 
      0.182957393483709                     0.5                     0.5        4.15914793876479        10.5000002980233                    10.5  -6.37637593741936E-005  -2.49997622085477E-007     0.00046521055634185       0.461690436821506                       0                       0      -0.768888193037642  -2.79575941414866E-005       0.788952816616011 
       0.18546365914787                     0.5                     0.5         4.2092732550357        10.5000002980233                    10.5  -6.58940853074794E-005  -2.49997622085477E-007    0.000450473711286932       0.461017818532109                       0                       0      -0.734835139102995   -2.7954784418138E-005       0.789327871769824 
       0.18796992481203                     0.5                     0.5        4.25939857130661        10.5000002980233                    10.5  -6.80244112407652E-005  -2.49997622085477E-007    0.000435736866232014       0.460345200242713                       0                       0      -0.700782085168348  -2.79519746947896E-005       0.789702926923637 
       0.19047619047619                     0.5                     0.5        4.30952388757752        10.5000002980233                    10.5   -7.0154737174051E-005  -2.49997622085477E-007    0.000421000021177096       0.459672581953317                       0                       0      -0.666729031233701  -2.79491649714413E-005        0.79007798207745 
      0.192982456140351                     0.5                     0.5        4.35964920384843        10.5000002980233                    10.5  -7.22850631073368E-005  -2.49997622085477E-007    0.000406263176122177        0.45899996366392                       0                       0      -0.632675977299054  -2.79463552480928E-005       0.790453037231263 
      0.195488721804511                     0.5                     0.5        4.40977452011933        10.5000002980233                    10.5  -7.44153890406226E-005  -2.49997622085477E-007    0.000391526331067259       0.458327345374524                       0                       0      -0.598622923364407  -2.79435455247446E-005       0.790828092385077 
      0.197994987468672                     0.5                     0.5        4.45989983639024        10.5000002980233                    10.5  -7.65457149739085E-005  -2.49997622085477E-007    0.000376789486012341       0.457654727085128                       0                       0       -0.56456986942976  -2.79407358013961E-005        0.79120314753889 
      0.200501253132832                     0.5                     0.5        4.51002515266115        10.5000002980233                    10.5  -7.86760409071943E-005  -2.49999410225523E-007    0.000362052640957422       0.456982108795589                       0                       0      -0.530516815495872  -2.79387569581889E-005       0.791578202693982 
      0.203007518796992                     0.5                     0.5        4.56015046893206        10.5000002980233                    10.5  -8.08063668404801E-005  -2.49999410225523E-007    0.000347315795902504       0.456309490506193                       0                       0      -0.496463761561225  -2.79359472348404E-005       0.791953257847795 