VARIABLES = "X"
 "Y"
 "Z"
 "I"
 "J"
 "K"
 "U"
 "V"
 "W"
 "T"
 "fu"
 "fv"
 "X Pressure Gradient"
 "Y Pressure Gradient"
 "Z Pressure Gradient"
ZONE
DT=(DOUBLE,DOUBLE,DOUBLE,DOUBLE,DOUBLE,DOUBLE,DOUBLE,DOUBLE,DOUBLE,DOUBLE,DOUBLE,DOUBLE,DOUBLE,DOUBLE,DOUBLE)
                    0.5                     0.5                       0                     5.5                     5.5                       0                       0                       0                       0        10.0017080307007                       0                       0      0.0475889416411519                       0        28.3543453216553 
                    0.5                     0.5      0.0025062656641604                     5.5                     5.5      0.0501253125362827     0.00113160401427694                       0  -7.06265633788548E-005        10.1668125237933                       0                       0      0.0487573121227164                       0        28.0286514455047 
                    0.5                     0.5      0.0050125313283208                     5.5                     5.5       0.100250625072565     0.00226320802855387                       0    -0.00014125312675771        10.3319170168859                       0                       0      0.0499256826042808                       0        27.7029575693541 
                    0.5                     0.5      0.0075187969924812                     5.5                     5.5       0.150375937608848     0.00339481204283081                       0   -0.000211879690136565        10.4970215099785                       0                       0      0.0510940530858452                       0        27.3772636932036 
                    0.5                     0.5      0.0100250626566416                     5.5                     5.5       0.200501250145131     0.00452641605710774                       0   -0.000282506253515419        10.6621260030711                       0                       0      0.0522624235674097                       0         27.051569817053 
                    0.5                     0.5       0.012531328320802                     5.5                     5.5       0.250626562681413     0.00565802007138468                       0   -0.000353132816894274        10.8272304961637                       0                       0      0.0534307940489741                       0        26.7258759409025 
                    0.5                     0.5      0.0150375939849624                     5.5                     5.5       0.300751875217696     0.00678962408566161                       0   -0.000423759380273129        10.9923349892563                       0                       0      0.0545991645305386                       0        26.4001820647519 
                    0.5                     0.5      0.0175438596491228                     5.5                     5.5       0.350877187753979     0.00792122809993855                       0   -0.000494385943651984        11.1574394823489                       0                       0       0.055767535012103                       0        26.0744881886013 
                    0.5                     0.5      0.0200501253132832                     5.5                     5.5       0.401002500290261     0.00905283211421548                       0   -0.000565012507030839        11.3225439754415                       0                       0      0.0569359054936675                       0        25.7487943124508 
                    0.5                     0.5      0.0225563909774436                     5.5                     5.5       0.451127812826544      0.0101844361284924                       0   -0.000635639070409694        11.4876484685341                       0                       0      0.0581042759752319                       0        25.4231004363002 
                    0.5                     0.5       0.025062656641604                     5.5                     5.5       0.501253125362827      0.0113160401427694                       0   -0.000706265633788548        11.6527529616267                       0                       0      0.0592726464567963                       0        25.0974065601497 
                    0.5                     0.5      0.0275689223057644                     5.5                     5.5       0.551378437899109      0.0124476441570463                       0   -0.000776892197167403        11.8178574547193                       0                       0      0.0604410169383608                       0        24.7717126839991 
                    0.5                     0.5      0.0300751879699248                     5.5                     5.5       0.601503750435392      0.0135792481713232                       0   -0.000847518760546258        11.9829619478119                       0                       0      0.0616093874199252                       0        24.4460188078485 
                    0.5                     0.5      0.0325814536340852                     5.5                     5.5       0.651629062971675      0.0147108521856002                       0   -0.000918145323925113        12.1480664409045                       0                       0      0.0627777579014897                       0         24.120324931698 
                    0.5                     0.5      0.0350877192982456                     5.5                     5.5       0.701754375507957      0.0158424561998771                       0   -0.000988771887303968        12.3131709339971                       0                       0      0.0639461283830541                       0        23.7946310555474 
                    0.5                     0.5       0.037593984962406                     5.5                     5.5        0.75187968804424       0.016974060214154                       0    -0.00105939845068282        12.4782754270897                       0                       0      0.0651144988646186                       0        23.4689371793968 
                    0.5                     0.5      0.0401002506265664                     5.5                     5.5       0.802005000580523       0.018105664228431                       0    -0.00113002501406168        12.6433799201823                       0                       0       0.066282869346183                       0        23.1432433032463 
                    0.5                     0.5      0.0426065162907268                     5.5                     5.5       0.852130313116805      0.0192372682427079                       0    -0.00120065157744053        12.8084844132749                       0                       0      0.0674512398277475                       0        22.8175494270957 
                    0.5                     0.5      0.0451127819548872                     5.5                     5.5       0.902255625653088      0.0203688722569848                       0    -0.00127127814081939        12.9735889063675                       0                       0      0.0686196103093119                       0        22.4918555509452 
                    0.5                     0.5      0.0476190476190476                     5.5                     5.5        0.95238093818937      0.0215004762712618                       0    -0.00134190470419824        13.1386933994601                       0                       0      0.0697879807908763                       0        22.1661616747946 
                    0.5                     0.5       0.050125313283208                     5.5                     5.5        1.00125312531614      0.0225733989301162                       0    -0.00140945359172131        13.2967442402205                       0                       0      0.0709141117757024                       0        21.8411870069887 
                    0.5                     0.5      0.0526315789473684                     5.5                     5.5        1.02631578065063       0.022531368858027                       0    -0.00141852627201202        13.3207748479069                       0                       0      0.0712376872997182                       0        21.5298773832534 
                    0.5                     0.5      0.0551378446115288                     5.5                     5.5        1.05137843598511      0.0224893387859379                       0    -0.00142759895230272        13.3448054555932                       0                       0       0.071561262823734                       0        21.2185677595181 
                    0.5                     0.5      0.0576441102756892                     5.5                     5.5         1.0764410913196      0.0224473087138487                       0    -0.00143667163259343        13.3688360632796                       0                       0      0.0718848383477498                       0        20.9072581357828 
                    0.5                     0.5      0.0601503759398496                     5.5                     5.5        1.10150374665408      0.0224052786417595                       0    -0.00144574431288413        13.3928666709659                       0                       0      0.0722084138717656                       0        20.5959485120475 
                    0.5                     0.5        0.06265664160401                     5.5                     5.5        1.12656640198857      0.0223632485696704                       0    -0.00145481699317484        13.4168972786523                       0                       0      0.0725319893957814                       0        20.2846388883122 
                    0.5                     0.5      0.0651629072681704                     5.5                     5.5        1.15162905732305      0.0223212184975812                       0    -0.00146388967346554        13.4409278863386                       0                       0      0.0728555649197972                       0        19.9733292645769 
                    0.5                     0.5      0.0676691729323308                     5.5                     5.5        1.17669171265754       0.022279188425492                       0    -0.00147296235375625         13.464958494025                       0                       0       0.073179140443813                       0        19.6620196408416 
                    0.5                     0.5      0.0701754385964912                     5.5                     5.5        1.20175436799202      0.0222371583534029                       0    -0.00148203503404695        13.4889891017113                       0                       0      0.0735027159678287                       0        19.3507100171063 
                    0.5                     0.5      0.0726817042606516                     5.5                     5.5        1.22681702332651      0.0221951282813137                       0    -0.00149110771433765        13.5130197093977                       0                       0      0.0738262914918445                       0         19.039400393371 
                    0.5                     0.5       0.075187969924812                     5.5                     5.5        1.25187967866099      0.0221530982092246                       0    -0.00150018039462836        13.5370503170841                       0                       0      0.0741498670158603                       0        18.7280907696357 
                    0.5                     0.5      0.0776942355889724                     5.5                     5.5        1.27694233399548      0.0221110681371354                       0    -0.00150925307491906        13.5610809247704                       0                       0      0.0744734425398761                       0        18.4167811459004 
                    0.5                     0.5      0.0802005012531328                     5.5                     5.5        1.30200498932996      0.0220690380650462                       0    -0.00151832575520977        13.5851115324568                       0                       0      0.0747970180638919                       0        18.1054715221651 
                    0.5                     0.5      0.0827067669172932                     5.5                     5.5        1.32706764466444      0.0220270079929571                       0    -0.00152739843550047        13.6091421401431                       0                       0      0.0751205935879077                       0        17.7941618984298 
                    0.5                     0.5      0.0852130325814536                     5.5                     5.5        1.35213029999893      0.0219849779208679                       0    -0.00153647111579118        13.6331727478295                       0                       0      0.0754441691119235                       0        17.4828522746945 
                    0.5                     0.5       0.087719298245614                     5.5                     5.5        1.37719295533341      0.0219429478487787                       0    -0.00154554379608188        13.6572033555158                       0                       0      0.0757677446359392                       0        17.1715426509592 
                    0.5                     0.5      0.0902255639097744                     5.5                     5.5         1.4022556106679      0.0219009177766896                       0    -0.00155461647637259        13.6812339632022                       0                       0       0.076091320159955                       0        16.8602330272239 
                    0.5                     0.5      0.0927318295739348                     5.5                     5.5        1.42731826600238      0.0218588877046004                       0    -0.00156368915666329        13.7052645708885                       0                       0      0.0764148956839708                       0        16.5489234034886 
                    0.5                     0.5      0.0952380952380952                     5.5                     5.5        1.45238092133687      0.0218168576325112                       0      -0.001572761836954        13.7292951785749                       0                       0      0.0767384712079866                       0        16.2376137797534 
                    0.5                     0.5      0.0977443609022556                     5.5                     5.5        1.47744357667135      0.0217748275604221                       0     -0.0015818345172447        13.7533257862612                       0                       0      0.0770620467320024                       0        15.9263041560181 
                    0.5                     0.5       0.100250626566416                     5.5                     5.5        1.50250623200584      0.0217327974883329                       0     -0.0015909071975354        13.7773563939476                       0                       0      0.0773856222560182                       0        15.6149945322828 
                    0.5                     0.5       0.102756892230576                     5.5                     5.5        1.52756888734032      0.0216907674162438                       0    -0.00159997987782611        13.8013870016339                       0                       0       0.077709197780034                       0        15.3036849085475 
                    0.5                     0.5       0.105263157894737                     5.5                     5.5        1.55263154267481      0.0216487373441546                       0    -0.00160905255811681        13.8254176093203                       0                       0      0.0780327733040498                       0        14.9923752848122 
                    0.5                     0.5       0.107769423558897                     5.5                     5.5        1.57769419800929      0.0216067072720654                       0    -0.00161812523840752        13.8494482170066                       0                       0      0.0783563488280655                       0        14.6810656610769 
                    0.5                     0.5       0.110275689223058                     5.5                     5.5        1.60275685334378      0.0215646771999763                       0    -0.00162719791869822         13.873478824693                       0                       0      0.0786799243520813                       0        14.3697560373416 
                    0.5                     0.5       0.112781954887218                     5.5                     5.5        1.62781950867826      0.0215226471278871                       0    -0.00163627059898893        13.8975094323793                       0                       0      0.0790034998760971                       0        14.0584464136063 
                    0.5                     0.5       0.115288220551378                     5.5                     5.5        1.65288216401275      0.0214806170557979                       0    -0.00164534327927963        13.9215400400657                       0                       0      0.0793270754001129                       0         13.747136789871 
                    0.5                     0.5       0.117794486215539                     5.5                     5.5        1.67794481934723      0.0214385869837088                       0    -0.00165441595957034         13.945570647752                       0                       0      0.0796506509241287                       0        13.4358271661357 
                    0.5                     0.5       0.120300751879699                     5.5                     5.5        1.70300747468171      0.0213965569116196                       0    -0.00166348863986104        13.9696012554384                       0                       0      0.0799742264481445                       0        13.1245175424004 
                    0.5                     0.5        0.12280701754386                     5.5                     5.5         1.7280701300162      0.0213545268395305                       0    -0.00167256132015174        13.9936318631247                       0                       0      0.0802978019721603                       0        12.8132079186651 
                    0.5                     0.5        0.12531328320802                     5.5                     5.5        1.75313278535068      0.0213124967674413                       0    -0.00168163400044245        14.0176624708111                       0                       0      0.0806213774961761                       0        12.5018982949298 
                    0.5                     0.5        0.12781954887218                     5.5                     5.5        1.77819544068517      0.0212704666953521                       0    -0.00169070668073315        14.0416930784975                       0                       0      0.0809449530201918                       0        12.1905886711945 
                    0.5                     0.5       0.130325814536341                     5.5                     5.5        1.80325809601965       0.021228436623263                       0    -0.00169977936102386        14.0657236861838                       0                       0      0.0812685285442076                       0        11.8792790474592 
                    0.5                     0.5       0.132832080200501                     5.5                     5.5        1.82832075135414      0.0211864065511738                       0    -0.00170885204131456        14.0897542938702                       0                       0      0.0815921040682234                       0        11.5679694237239 
                    0.5                     0.5       0.135338345864662                     5.5                     5.5        1.85338340668862      0.0211443764790846                       0    -0.00171792472160527        14.1137849015565                       0                       0      0.0819156795922392                       0        11.2566597999886 
                    0.5                     0.5       0.137844611528822                     5.5                     5.5        1.87844606202311      0.0211023464069955                       0    -0.00172699740189597        14.1378155092429                       0                       0       0.082239255116255                       0        10.9453501762533 
                    0.5                     0.5       0.140350877192982                     5.5                     5.5        1.90350871735759      0.0210603163349063                       0    -0.00173607008218668        14.1618461169292                       0                       0      0.0825628306402708                       0         10.634040552518 
                    0.5                     0.5       0.142857142857143                     5.5                     5.5        1.92857137269208      0.0210182862628171                       0    -0.00174514276247738        14.1858767246156                       0                       0      0.0828864061642866                       0        10.3227309287827 
                    0.5                     0.5       0.145363408521303                     5.5                     5.5        1.95363402802656       0.020976256190728                       0    -0.00175421544276808        14.2099073323019                       0                       0      0.0832099816883024                       0        10.0114213050474 
                    0.5                     0.5       0.147869674185464                     5.5                     5.5        1.97869668336105      0.0209342261186388                       0    -0.00176328812305879        14.2339379399883                       0                       0      0.0835335572123182                       0        9.70011168131214 
                    0.5                     0.5       0.150375939849624                     5.5                     5.5        2.00375933911567      0.0208802432240787   9.39828258887115E-010    -0.00176580263681315        14.2549813305715                       0                       0      0.0836922455807051                       0        9.40910390008947 
                    0.5                     0.5       0.152882205513784                     5.5                     5.5        2.02882199725113      0.0207585264054298   7.20544932519273E-009    -0.00173115351365959        14.2590968418195                       0                       0      0.0829165559718604                       0        9.23314203902151 
                    0.5                     0.5       0.155388471177945                     5.5                     5.5        2.05388465538658      0.0206368095867809   1.34710703914983E-008    -0.00169650439050602        14.2632123530675                       0                       0      0.0821408663630158                       0        9.05718017795354 
                    0.5                     0.5       0.157894736842105                     5.5                     5.5        2.07894731352203       0.020515092768132    1.9736691457804E-008    -0.00166185526735246        14.2673278643155                       0                       0      0.0813651767541712                       0        8.88121831688558 
                    0.5                     0.5       0.160401002506266                     5.5                     5.5        2.10400997165749       0.020393375949483   2.60023125241096E-008    -0.00162720614419889        14.2714433755635                       0                       0      0.0805894871453266                       0        8.70525645581762 
                    0.5                     0.5       0.162907268170426                     5.5                     5.5        2.12907262979294      0.0202716591308341   3.22679335904152E-008    -0.00159255702104533        14.2755588868115                       0                       0      0.0798137975364819                       0        8.52929459474965 
                    0.5                     0.5       0.165413533834586                     5.5                     5.5         2.1541352879284      0.0201499423121852   3.85335546567208E-008    -0.00155790789789177        14.2796743980595                       0                       0      0.0790381079276373                       0        8.35333273368169 
                    0.5                     0.5       0.167919799498747                     5.5                     5.5        2.17919794606385      0.0200282254935363   4.47991757230264E-008     -0.0015232587747382        14.2837899093075                       0                       0      0.0782624183187927                       0        8.17737087261373 
                    0.5                     0.5       0.170426065162907                     5.5                     5.5        2.20426060419931      0.0199065086748874   5.10647967893321E-008    -0.00148860965158464        14.2879054205555                       0                       0      0.0774867287099481                       0        8.00140901154576 
                    0.5                     0.5       0.172932330827068                     5.5                     5.5        2.22932326233476      0.0197847918562384   5.73304178556377E-008    -0.00145396052843107        14.2920209318035                       0                       0      0.0767110391011035                       0         7.8254471504778 
                    0.5                     0.5       0.175438596491228                     5.5                     5.5        2.25438592047022      0.0196630750375895   6.35960389219433E-008    -0.00141931140527751        14.2961364430515                       0                       0      0.0759353494922588                       0        7.64948528940984 
                    0.5                     0.5       0.177944862155388                     5.5                     5.5        2.27944857860567      0.0195413582189406   6.98616599882489E-008    -0.00138466228212394        14.3002519542995                       0                       0      0.0751596598834142                       0        7.47352342834187 
                    0.5                     0.5       0.180451127819549                     5.5                     5.5        2.30451123674113      0.0194196414002917   7.61272810545545E-008    -0.00135001315897038        14.3043674655475                       0                       0      0.0743839702745696                       0        7.29756156727391 
                    0.5                     0.5       0.182957393483709                     5.5                     5.5        2.32957389487658      0.0192979245816427   8.23929021208601E-008    -0.00131536403581681        14.3084829767955                       0                       0       0.073608280665725                       0        7.12159970620595 
                    0.5                     0.5        0.18546365914787                     5.5                     5.5        2.35463655301204      0.0191762077629938   8.86585231871658E-008    -0.00128071491266325        14.3125984880435                       0                       0      0.0728325910568803                       0        6.94563784513798 
                    0.5                     0.5        0.18796992481203                     5.5                     5.5        2.37969921114749      0.0190544909443449   9.49241442534714E-008    -0.00124606578950968        14.3167139992915                       0                       0      0.0720569014480357                       0        6.76967598407002 
                    0.5                     0.5        0.19047619047619                     5.5                     5.5        2.40476186928295       0.018932774125696   1.01189765319777E-007    -0.00121141666635612        14.3208295105395                       0                       0      0.0712812118391911                       0        6.59371412300206 
                    0.5                     0.5       0.192982456140351                     5.5                     5.5         2.4298245274184      0.0188110573070471   1.07455386386083E-007    -0.00117676754320255        14.3249450217875                       0                       0      0.0705055222303465                       0         6.4177522619341 
                    0.5                     0.5       0.195488721804511                     5.5                     5.5        2.45488718555386      0.0186893404883981   1.13721007452388E-007    -0.00114211842004899        14.3290605330355                       0                       0      0.0697298326215019                       0        6.24179040086613 
                    0.5                     0.5       0.197994987468672                     5.5                     5.5        2.47994984368931      0.0185676236697492   1.19986628518694E-007    -0.00110746929689542        14.3331760442835                       0                       0      0.0689541430126572                       0        6.06582853979817 
                    0.5                     0.5       0.200501253132832                     5.5                     5.5        2.50501250182477      0.0184459068511003   1.26252249584999E-007    -0.00107282017374186        14.3372915555315                       0                       0      0.0681784534038126                       0        5.88986667873021 
                    0.5                     0.5       0.203007518796992                     5.5                     5.5        2.53007515996022      0.0183241900324514   1.32517870651305E-007    -0.00103817105058829        14.3414070667795                       0                       0       0.067402763794968                       0        5.71390481766224 