VARIABLES = "X"
 "Y"
 "Z"
 "I"
 "J"
 "K"
 "U"
 "V"
 "W"
 "T"
 "fu"
 "fv"
 "X Pressure Gradient"
 "Y Pressure Gradient"
 "Z Pressure Gradient"
ZONE
DT=(DOUBLE,DOUBLE,DOUBLE,DOUBLE,DOUBLE,DOUBLE,DOUBLE,DOUBLE,DOUBLE,DOUBLE,DOUBLE,DOUBLE,DOUBLE,DOUBLE,DOUBLE)
                      0                     0.5                     0.5                       0                     5.5                     5.5                       0                       0                       0        10.0016593933105                       0                       0         32.378776550293                       0        0.80036872625351 
     0.0025062656641604                     0.5                     0.5      0.0501253125362827                     5.5                     5.5    0.000378746874495258                       0   -0.000808922314451153        10.2455803110589                       0                       0        31.9112904744984                       0       0.820617158756552 
     0.0050125313283208                     0.5                     0.5       0.100250625072565                     5.5                     5.5    0.000757493748990515                       0    -0.00161784462890231        10.4895012288072                       0                       0        31.4438043987039                       0       0.840865591259594 
     0.0075187969924812                     0.5                     0.5       0.150375937608848                     5.5                     5.5     0.00113624062348577                       0    -0.00242676694335346        10.7334221465556                       0                       0        30.9763183229094                       0       0.861114023762636 
     0.0100250626566416                     0.5                     0.5       0.200501250145131                     5.5                     5.5     0.00151498749798103                       0    -0.00323568925780461        10.9773430643039                       0                       0        30.5088322471149                       0       0.881362456265678 
      0.012531328320802                     0.5                     0.5       0.250626562681413                     5.5                     5.5     0.00189373437247629                       0    -0.00404461157225576        11.2212639820523                       0                       0        30.0413461713203  -3.46944695195361E-018        0.90161088876872 
     0.0150375939849624                     0.5                     0.5       0.300751875217696                     5.5                     5.5     0.00227248124697155                       0    -0.00485353388670692        11.4651848998006                       0                       0        29.5738600955258                       0       0.921859321271763 
     0.0175438596491228                     0.5                     0.5       0.350877187753979                     5.5                     5.5      0.0026512281214668                       0    -0.00566245620115807        11.7091058175489                       0                       0        29.1063740197313  -1.73472347597681E-018       0.942107753774805 
     0.0200501253132832                     0.5                     0.5       0.401002500290261                     5.5                     5.5     0.00302997499596206                       0    -0.00647137851560922        11.9530267352973                       0                       0        28.6388879439368                       0       0.962356186277847 
     0.0225563909774436                     0.5                     0.5       0.451127812826544                     5.5                     5.5     0.00340872187045732                       0    -0.00728030083006038        12.1969476530456                       0                       0        28.1714018681422   1.73472347597681E-018       0.982604618780889 
      0.025062656641604                     0.5                     0.5       0.501253125362827                     5.5                     5.5     0.00378746874495258                       0    -0.00808922314451153         12.440868570794                       0                       0        27.7039157923477   1.73472347597681E-018        1.00285305128393 
     0.0275689223057644                     0.5                     0.5       0.551378437899109                     5.5                     5.5     0.00416621561944783                       0    -0.00889814545896268        12.6847894885423                       0                       0        27.2364297165532  -1.73472347597681E-018        1.02310148378697 
     0.0300751879699248                     0.5                     0.5       0.601503750435392                     5.5                     5.5     0.00454496249394309                       0    -0.00970706777341383        12.9287104062907                       0                       0        26.7689436407586                       0        1.04334991629002 
     0.0325814536340852                     0.5                     0.5       0.651629062971675                     5.5                     5.5     0.00492370936843835                       0      -0.010515990087865         13.172631324039                       0                       0        26.3014575649641   8.67361737988404E-019        1.06359834879306 
     0.0350877192982456                     0.5                     0.5       0.701754375507957                     5.5                     5.5     0.00530245624293361                       0     -0.0113249124023161        13.4165522417873                       0                       0        25.8339714891696   8.67361737988404E-019         1.0838467812961 
      0.037593984962406                     0.5                     0.5        0.75187968804424                     5.5                     5.5     0.00568120311742886                       0     -0.0121338347167673        13.6604731595357                       0                       0        25.3664854133751  -8.67361737988404E-019        1.10409521379914 
     0.0401002506265664                     0.5                     0.5       0.802005000580523                     5.5                     5.5     0.00605994999192412    1.0842021724855E-019     -0.0129427570312184         13.904394077284                       0                       0        24.8989993375805  -1.73472347597681E-018        1.12434364630218 
     0.0426065162907268                     0.5                     0.5       0.852130313116805                     5.5                     5.5     0.00643869686641938    1.0842021724855E-019     -0.0137516793456696        14.1483149950324                       0                       0         24.431513261786  -4.33680868994202E-019        1.14459207880523 
     0.0451127819548872                     0.5                     0.5       0.902255625653088                     5.5                     5.5     0.00681744374091464   -1.0842021724855E-019     -0.0145606016601208        14.3922359127807                       0                       0        23.9640271859915   1.73472347597681E-018        1.16484051130827 
     0.0476190476190476                     0.5                     0.5        0.95238093818937                     5.5                     5.5     0.00719619061540989                       0     -0.0153695239745719        14.6361568305291                       0                       0         23.496541110197                       0        1.18508894381131 
      0.050125313283208                     0.5                     0.5        1.00125312531614                     5.5                     5.5     0.00756894065683076                       0     -0.0161171991595445        14.8678780056407                       0                       0        23.0319034581347                       0        1.20480406624394 
     0.0526315789473684                     0.5                     0.5        1.02631578065063                     5.5                     5.5     0.00782775015674287   2.16840434497101E-019     -0.0157011716014073        14.8678026199606                       0                       0        22.6213861956964  -3.46944695195361E-018        1.21438623392174 
     0.0551378446115288                     0.5                     0.5        1.05137843598511                     5.5                     5.5     0.00808655965665499                       0     -0.0152851440432702        14.8677272342805                       0                       0        22.2108689332582                       0        1.22396840159955 
     0.0576441102756892                     0.5                     0.5         1.0764410913196                     5.5                     5.5      0.0083453691565671                       0      -0.014869116485133        14.8676518486004                       0                       0          21.80035167082                       0        1.23355056927736 
     0.0601503759398496                     0.5                     0.5        1.10150374665408                     5.5                     5.5     0.00860417865647922                       0     -0.0144530889269958        14.8675764629202                       0                       0        21.3898344083818                       0        1.24313273695516 
       0.06265664160401                     0.5                     0.5        1.12656640198857                     5.5                     5.5     0.00886298815639133                       0     -0.0140370613688586        14.8675010772401                       0                       0        20.9793171459436                       0        1.25271490463297 
     0.0651629072681704                     0.5                     0.5        1.15162905732305                     5.5                     5.5     0.00912179765630344                       0     -0.0136210338107215          14.86742569156                       0                       0        20.5687998835054                       0        1.26229707231077 
     0.0676691729323308                     0.5                     0.5        1.17669171265754                     5.5                     5.5     0.00938060715621556    1.0842021724855E-019     -0.0132050062525843        14.8673503058799                       0                       0        20.1582826210672                       0        1.27187923998858 
     0.0701754385964912                     0.5                     0.5        1.20175436799202                     5.5                     5.5     0.00963941665612767                       0     -0.0127889786944471        14.8672749201997                       0                       0         19.747765358629                       0        1.28146140766638 
     0.0726817042606516                     0.5                     0.5        1.22681702332651                     5.5                     5.5     0.00989822615603979                       0       -0.01237295113631        14.8671995345196                       0                       0        19.3372480961908                       0        1.29104357534419 
      0.075187969924812                     0.5                     0.5        1.25187967866099                     5.5                     5.5      0.0101570356559519                       0     -0.0119569235781728        14.8671241488395                       0                       0        18.9267308337526                       0        1.30062574302199 
     0.0776942355889724                     0.5                     0.5        1.27694233399548                     5.5                     5.5       0.010415845155864    1.0842021724855E-019     -0.0115408960200356        14.8670487631594                       0                       0        18.5162135713143                       0         1.3102079106998 
     0.0802005012531328                     0.5                     0.5        1.30200498932996                     5.5                     5.5      0.0106746546557761   -1.0842021724855E-019     -0.0111248684618984        14.8669733774792                       0                       0        18.1056963088761   3.46944695195361E-018        1.31979007837761 
     0.0827067669172932                     0.5                     0.5        1.32706764466444                     5.5                     5.5      0.0109334641556882   -1.0842021724855E-019     -0.0107088409037613        14.8668979917991                       0                       0        17.6951790464379                       0        1.32937224605541 
     0.0852130325814536                     0.5                     0.5        1.35213029999893                     5.5                     5.5      0.0111922736556004    1.0842021724855E-019     -0.0102928133456241         14.866822606119                       0                       0        17.2846617839997                       0        1.33895441373322 
      0.087719298245614                     0.5                     0.5        1.37719295533341                     5.5                     5.5      0.0114510831555125                       0    -0.00987678578748693        14.8667472204388                       0                       0        16.8741445215615                       0        1.34853658141102 
     0.0902255639097744                     0.5                     0.5         1.4022556106679                     5.5                     5.5      0.0117098926554246                       0    -0.00946075822934976        14.8666718347587                       0                       0        16.4636272591233   3.46944695195361E-018        1.35811874908883 
     0.0927318295739348                     0.5                     0.5        1.42731826600238                     5.5                     5.5      0.0119687021553367    1.0842021724855E-019    -0.00904473067121259        14.8665964490786                       0                       0        16.0531099966851                       0        1.36770091676663 
     0.0952380952380952                     0.5                     0.5        1.45238092133687                     5.5                     5.5      0.0122275116552488                       0    -0.00862870311307542        14.8665210633985                       0                       0        15.6425927342469                       0        1.37728308444444 
     0.0977443609022556                     0.5                     0.5        1.47744357667135                     5.5                     5.5      0.0124863211551609                       0    -0.00821267555493825        14.8664456777183                       0                       0        15.2320754718087  -1.73472347597681E-018        1.38686525212224 
      0.100250626566416                     0.5                     0.5        1.50250623200584                     5.5                     5.5       0.012745130655073    1.0842021724855E-019    -0.00779664799680108        14.8663702920382                       0                       0        14.8215582093705  -1.73472347597681E-018        1.39644741980005 
      0.102756892230576                     0.5                     0.5        1.52756888734032                     5.5                     5.5      0.0130039401549852    1.0842021724855E-019    -0.00738062043866391        14.8662949063581                       0                       0        14.4110409469322                       0        1.40602958747785 
      0.105263157894737                     0.5                     0.5        1.55263154267481                     5.5                     5.5      0.0132627496548973  -5.42101086242752E-020    -0.00696459288052674         14.866219520678                       0                       0         14.000523684494                       0        1.41561175515566 
      0.107769423558897                     0.5                     0.5        1.57769419800929                     5.5                     5.5      0.0135215591548094  -5.42101086242752E-020    -0.00654856532238957        14.8661441349978                       0                       0        13.5900064220558   1.73472347597681E-018        1.42519392283347 
      0.110275689223058                     0.5                     0.5        1.60275685334378                     5.5                     5.5      0.0137803686547215   5.42101086242752E-020     -0.0061325377642524        14.8660687493177                       0                       0        13.1794891596176  -1.73472347597681E-018        1.43477609051127 
      0.112781954887218                     0.5                     0.5        1.62781950867826                     5.5                     5.5      0.0140391781546336  -5.42101086242752E-020    -0.00571651020611523        14.8659933636376                       0                       0        12.7689718971794   1.73472347597681E-018        1.44435825818908 
      0.115288220551378                     0.5                     0.5        1.65288216401275                     5.5                     5.5      0.0142979876545457  -5.42101086242752E-020    -0.00530048264797806        14.8659179779574                       0                       0        12.3584546347412                       0        1.45394042586688 
      0.117794486215539                     0.5                     0.5        1.67794481934723                     5.5                     5.5      0.0145567971544579                       0    -0.00488445508984089        14.8658425922773                       0                       0         11.947937372303  -1.73472347597681E-018        1.46352259354469 
      0.120300751879699                     0.5                     0.5        1.70300747468171                     5.5                     5.5        0.01481560665437    1.0842021724855E-019    -0.00446842753170371        14.8657672065972                       0                       0        11.5374201098648   3.46944695195361E-018        1.47310476122249 
       0.12280701754386                     0.5                     0.5         1.7280701300162                     5.5                     5.5      0.0150744161542821    1.0842021724855E-019    -0.00405239997356654        14.8656918209171                       0                       0        11.1269028474266   1.73472347597681E-018         1.4826869289003 
       0.12531328320802                     0.5                     0.5        1.75313278535068                     5.5                     5.5      0.0153332256541942  -5.42101086242752E-020    -0.00363637241542937        14.8656164352369                       0                       0        10.7163855849884  -8.67361737988404E-019         1.4922690965781 
       0.12781954887218                     0.5                     0.5        1.77819544068517                     5.5                     5.5      0.0155920351541063   5.42101086242752E-020     -0.0032203448572922        14.8655410495568                       0                       0        10.3058683225501  -3.46944695195361E-018        1.50185126425591 
      0.130325814536341                     0.5                     0.5        1.80325809601965                     5.5                     5.5      0.0158508446540184  -1.62630325872826E-019    -0.00280431729915503        14.8654656638767                       0                       0        9.89535106011193   2.60208521396521E-018        1.51143343193372 
      0.132832080200501                     0.5                     0.5        1.82832075135414                     5.5                     5.5      0.0161096541539305  -5.42101086242752E-020    -0.00238828974101786        14.8653902781966                       0                       0        9.48483379767373                       0        1.52101559961152 
      0.135338345864662                     0.5                     0.5        1.85338340668862                     5.5                     5.5      0.0163684636538427   2.16840434497101E-019    -0.00197226218288069        14.8653148925164                       0                       0        9.07431653523551  -2.60208521396521E-018        1.53059776728933 
      0.137844611528822                     0.5                     0.5        1.87844606202311                     5.5                     5.5      0.0166272731537548   5.42101086242752E-020    -0.00155623462474352        14.8652395068363                       0                       0        8.66379927279731   3.03576608295941E-018        1.54017993496713 
      0.140350877192982                     0.5                     0.5        1.90350871735759                     5.5                     5.5      0.0168860826536669   1.21972744404619E-019    -0.00114020706660635        14.8651641211562                       0                       0         8.2532820103591  -3.03576608295941E-018        1.54976210264494 
      0.142857142857143                     0.5                     0.5        1.92857137269208                     5.5                     5.5       0.017144892153579  -4.06575814682064E-020   -0.000724179508469178         14.865088735476                       0                       0        7.84276474792088   2.16840434497101E-018        1.55934427032274 
      0.145363408521303                     0.5                     0.5        1.95363402802656                     5.5                     5.5      0.0174037016534911   1.35525271560688E-020   -0.000308151950332007        14.8650133497959                       0                       0        7.43224748548267  -3.46944695195361E-018        1.56892643800055 
      0.147869674185464                     0.5                     0.5        1.97869668336105                     5.5                     5.5      0.0176625111534032  -1.49077798716757E-019    0.000107875607805164        14.8649379641158                       0                       0        7.02173022304446   1.51788304147971E-018        1.57850860567835 
      0.150375939849624                     0.5                     0.5        2.00375933911567                     5.5                     5.5      0.0178951970151632                       0    0.000486176322856976         14.864668576895                       0                       0        6.64618192772281                       0        1.58636827533939 
      0.152882205513784                     0.5                     0.5        2.02882199725113                     5.5                     5.5      0.0179798461661106                       0    0.000650687606009248         14.863299827104                       0                       0        6.46879480896836                       0        1.58446694083635 
      0.155388471177945                     0.5                     0.5        2.05388465538658                     5.5                     5.5      0.0180644953170581                       0    0.000815198889161521        14.8619310773131                       0                       0        6.29140769021391                       0        1.58256560633332 
      0.157894736842105                     0.5                     0.5        2.07894731352203                     5.5                     5.5      0.0181491444680055                       0    0.000979710172313793        14.8605623275221                       0                       0        6.11402057145946                       0        1.58066427183028 
      0.160401002506266                     0.5                     0.5        2.10400997165749                     5.5                     5.5      0.0182337936189529                       0     0.00114422145546607        14.8591935777312                       0                       0        5.93663345270501                       0        1.57876293732724 
      0.162907268170426                     0.5                     0.5        2.12907262979294                     5.5                     5.5      0.0183184427699004                       0     0.00130873273861834        14.8578248279403                       0                       0        5.75924633395056                       0        1.57686160282421 
      0.165413533834586                     0.5                     0.5         2.1541352879284                     5.5                     5.5      0.0184030919208478                       0     0.00147324402177061        14.8564560781493                       0                       0        5.58185921519611                       0        1.57496026832117 
      0.167919799498747                     0.5                     0.5        2.17919794606385                     5.5                     5.5      0.0184877410717952                       0     0.00163775530492288        14.8550873283584                       0                       0        5.40447209644166                       0        1.57305893381813 
      0.170426065162907                     0.5                     0.5        2.20426060419931                     5.5                     5.5      0.0185723902227427                       0     0.00180226658807516        14.8537185785674                       0                       0        5.22708497768721                       0         1.5711575993151 
      0.172932330827068                     0.5                     0.5        2.22932326233476                     5.5                     5.5      0.0186570393736901                       0     0.00196677787122743        14.8523498287765                       0                       0        5.04969785893276                       0        1.56925626481206 
      0.175438596491228                     0.5                     0.5        2.25438592047022                     5.5                     5.5      0.0187416885246375                       0      0.0021312891543797        14.8509810789856                       0                       0        4.87231074017831                       0        1.56735493030902 
      0.177944862155388                     0.5                     0.5        2.27944857860567                     5.5                     5.5       0.018826337675585   -1.0842021724855E-019     0.00229580043753197        14.8496123291946                       0                       0        4.69492362142386                       0        1.56545359580599 
      0.180451127819549                     0.5                     0.5        2.30451123674113                     5.5                     5.5      0.0189109868265324    1.0842021724855E-019     0.00246031172068425        14.8482435794037                       0                       0        4.51753650266941                       0        1.56355226130295 
      0.182957393483709                     0.5                     0.5        2.32957389487658                     5.5                     5.5      0.0189956359774798   -1.0842021724855E-019     0.00262482300383652        14.8468748296127                       0                       0        4.34014938391496                       0        1.56165092679991 
       0.18546365914787                     0.5                     0.5        2.35463655301204                     5.5                     5.5      0.0190802851284273    1.0842021724855E-019     0.00278933428698879        14.8455060798218                       0                       0        4.16276226516051                       0        1.55974959229688 
       0.18796992481203                     0.5                     0.5        2.37969921114749                     5.5                     5.5      0.0191649342793747                       0     0.00295384557014106        14.8441373300308                       0                       0        3.98537514640606                       0        1.55784825779384 
       0.19047619047619                     0.5                     0.5        2.40476186928295                     5.5                     5.5      0.0192495834303221    1.0842021724855E-019     0.00311835685329334        14.8427685802399                       0                       0        3.80798802765161                       0         1.5559469232908 
      0.192982456140351                     0.5                     0.5         2.4298245274184                     5.5                     5.5      0.0193342325812695    1.0842021724855E-019     0.00328286813644561         14.841399830449                       0                       0        3.63060090889716                       0        1.55404558878777 
      0.195488721804511                     0.5                     0.5        2.45488718555386                     5.5                     5.5       0.019418881732217    1.0842021724855E-019     0.00344737941959788         14.840031080658                       0                       0        3.45321379014271                       0        1.55214425428473 
      0.197994987468672                     0.5                     0.5        2.47994984368931                     5.5                     5.5      0.0195035308831644                       0     0.00361189070275015        14.8386623308671                       0                       0        3.27582667138826                       0         1.5502429197817 
      0.200501253132832                     0.5                     0.5        2.50501250182477                     5.5                     5.5      0.0195881800341118                       0     0.00377640198590243        14.8372935810761                       0                       0        3.09843955263381  -3.46944695195361E-018        1.54834158527866 
      0.203007518796992                     0.5                     0.5        2.53007515996022                     5.5                     5.5      0.0196728291850593    1.0842021724855E-019      0.0039409132690547        14.8359248312852                       0                       0        2.92105243387936                       0        1.54644025077562 