VARIABLES = "X"
 "Y"
 "Z"
 "I"
 "J"
 "K"
 "U"
 "V"
 "W"
 "T"
 "fu"
 "fv"
 "X Pressure Gradient"
 "Y Pressure Gradient"
 "Z Pressure Gradient"
ZONE
DT=(DOUBLE,DOUBLE,DOUBLE,DOUBLE,DOUBLE,DOUBLE,DOUBLE,DOUBLE,DOUBLE,DOUBLE,DOUBLE,DOUBLE,DOUBLE,DOUBLE,DOUBLE)
                    0.5                     0.5                       0                    10.5                    10.5                       0                       0                       0                       0                      30                       0                       0      -0.451159745454788       -2.37961280345917       -1484.19018554688 
                    0.5                     0.5      0.0025062656641604                    10.5                    10.5         1.2011279424406      -0.127745369194226     -0.0298026493964741    -0.00209186822218703        26.4405284681394                       0                       0      -0.721281281404461       -9.07953597380785       -1038.20810232873 
                    0.5                     0.5      0.0050125313283208                    10.5                    10.5        1.65230089496512      -0.200411174765807     -0.0488422606147027     -0.0014791753618995        23.6371244414564                       0                       0      -0.617645341943137       -13.3363618983415       -762.039875689104 
                    0.5                     0.5      0.0075187969924812                    10.5                    10.5        2.05172761068843      -0.257463361904145     -0.0635121201858015   -0.000420318347781678        21.3877510525565                       0                       0      -0.469645685745342        -16.899483627281       -528.332645563059 
                    0.5                     0.5      0.0100250626566416                    10.5                    10.5        2.27727347959674      -0.262049720359165     -0.0634984749506837     0.00213776654612465        21.0000650522345                       0                       0      -0.172572374904158       -18.1315783980198        -437.30543405853 
                    0.5                     0.5       0.012531328320802                    10.5                    10.5        2.50281934850505      -0.266636078814184     -0.0634848297155659     0.00469585144003097        20.6123790519125                       0                       0       0.124500935937026       -19.3636731687585       -346.278222554001 
                    0.5                     0.5      0.0150375939849624                    10.5                    10.5        2.72836521741337      -0.271222437269203     -0.0634711844804481      0.0072539363339373        20.2246930515905                       0                       0        0.42157424677821       -20.5957679394974       -255.251011049473 
                    0.5                     0.5      0.0175438596491228                    10.5                    10.5        2.95391108632168      -0.275808795724223     -0.0634575392453303     0.00981202122784362        19.8370070512685                       0                       0       0.718647557619394       -21.8278627102361       -164.223799544944 
                    0.5                     0.5      0.0200501253132832                    10.5                    10.5        3.11965232070718      -0.275861640710785     -0.0624860156279368      0.0124389857240963        19.7375738370302                       0                       0       0.894207525681352       -22.1242141799531       -129.993692848284 
                    0.5                     0.5      0.0225563909774436                    10.5                    10.5        3.27003426943807      -0.274750169103212     -0.0612684855293877      0.0150836401786048        19.7121709536772                       0                       0        1.03855990995845       -22.1802439960981       -110.350464978993 
                    0.5                     0.5       0.025062656641604                    10.5                    10.5        3.42041621816896      -0.273638697495639     -0.0600509554308385      0.0177282946331132        19.6867680703241                       0                       0        1.18291229423555       -22.2362738122432       -90.7072371097024 
                    0.5                     0.5      0.0275689223057644                    10.5                    10.5        3.57079816689985      -0.272527225888066     -0.0588334253322894      0.0203729490876217        19.6613651869711                       0                       0        1.32726467851264       -22.2923036283882       -71.0640092404116 
                    0.5                     0.5      0.0300751879699248                    10.5                    10.5        3.72118011563074      -0.271415754280493     -0.0576158952337403      0.0230176035421302         19.635962303618                       0                       0        1.47161706278974       -22.3483334445332       -51.4207813711208 
                    0.5                     0.5      0.0325814536340852                    10.5                    10.5        3.87156206436162       -0.27030428267292     -0.0563983651351911      0.0256622579966387         19.610559420265                       0                       0        1.61596944706684       -22.4043632606782         -31.77755350183 
                    0.5                     0.5      0.0350877192982456                    10.5                    10.5        4.01645751595546      -0.269160335555447     -0.0552090650400343      0.0282693022787903        19.5884482057456                       0                       0        1.74401738617413       -22.4365492070934       -14.7195751481351 
                    0.5                     0.5       0.037593984962406                    10.5                    10.5        4.12924059306253      -0.267826309830529     -0.0541849946748948      0.0306562148614142        19.5856030729602                       0                       0        1.77663568483642       -22.3291773892649       -12.7930182665942 
                    0.5                     0.5      0.0401002506265664                    10.5                    10.5        4.24202367016961       -0.26649228410561     -0.0531609243097552       0.033043127444038        19.5827579401747                       0                       0        1.80925398349871       -22.2218055714364       -10.8664613850534 
                    0.5                     0.5      0.0426065162907268                    10.5                    10.5        4.35480674727668      -0.265158258380692     -0.0521368539446157      0.0354300400266619        19.5799128073893                       0                       0          1.841872282161       -22.1144337536078       -8.93990450351248 
                    0.5                     0.5      0.0451127819548872                    10.5                    10.5        4.46758982438376      -0.263824232655774     -0.0511127835794761      0.0378169526092858        19.5770676746038                       0                       0        1.87449058082328       -22.0070619357793       -7.01334762197161 
                    0.5                     0.5      0.0476190476190476                    10.5                    10.5        4.58037290149083      -0.262490206930855     -0.0500887132143366      0.0402038651919096        19.5742225418184                       0                       0        1.90710887948557       -21.8996901179508       -5.08679074043073 
                    0.5                     0.5       0.050125313283208                    10.5                    10.5        4.69315597859791      -0.261156181205937      -0.049064642849197      0.0425907777745335        19.5713774090329                       0                       0        1.93972717814786       -21.7923183001222       -3.16023385888985 
                    0.5                     0.5      0.0526315789473684                    10.5                    10.5        4.80593905570498      -0.259822155481018     -0.0480405724840575      0.0449776903571573        19.5685322762475                       0                       0        1.97234547681015       -21.6849464822937       -1.23367697734898 
                    0.5                     0.5      0.0551378446115288                    10.5                    10.5        4.91872213281205        -0.2584881297561     -0.0470165021189179      0.0473646029397812         19.565687143462                       0                       0        2.00496377547243       -21.5775746644652       0.692879904191895 
                    0.5                     0.5      0.0576441102756892                    10.5                    10.5        5.02520371922493      -0.257237303125094     -0.0460848841119862      0.0496702737231753        19.5636254827995                       0                       0        2.03317845582218        -21.475353496105        2.10453860712985 
                    0.5                     0.5      0.0601503759398496                    10.5                    10.5        5.11542857460686      -0.256201115435475     -0.0453917768310872      0.0517663550391494        19.5635850415897                       0                       0        2.05003258008383       -21.3864200920384        2.18785111325693 
                    0.5                     0.5        0.06265664160401                    10.5                    10.5        5.20565342998879      -0.255164927745856     -0.0446986695501882      0.0538624363551236        19.5635446003799                       0                       0        2.06688670434548       -21.2974866879719        2.27116361938401 
                    0.5                     0.5      0.0651629072681704                    10.5                    10.5        5.29587828537072      -0.254128740056237     -0.0440055622692892      0.0559585176710977          19.56350415917                       0                       0        2.08374082860712       -21.2085532839053        2.35447612551109 
                    0.5                     0.5      0.0676691729323308                    10.5                    10.5        5.38610314075265      -0.253092552366618     -0.0433124549883902      0.0580545989870719        19.5634637179602                       0                       0        2.10059495286877       -21.1196198798387        2.43778863163817 
                    0.5                     0.5      0.0701754385964912                    10.5                    10.5        5.47632799613458      -0.252056364676999     -0.0426193477074912       0.060150680303046        19.5634232767504                       0                       0        2.11744907713042       -21.0306864757721        2.52110113776525 
                    0.5                     0.5      0.0726817042606516                    10.5                    10.5        5.56655285151651       -0.25102017698738     -0.0419262404265922      0.0622467616190202        19.5633828355406                       0                       0        2.13430320139207       -20.9417530717055        2.60441364389234 
                    0.5                     0.5       0.075187969924812                    10.5                    10.5        5.65677770689844      -0.249983989297761     -0.0412331331456933      0.0643428429349943        19.5633423943307                       0                       0        2.15115732565372       -20.8528196676389        2.68772615001942 
                    0.5                     0.5      0.0776942355889724                    10.5                    10.5        5.74700256228037      -0.248947801608142     -0.0405400258647943      0.0664389242509685        19.5633019531209                       0                       0        2.16801144991537       -20.7638862635723         2.7710386561465 
                    0.5                     0.5      0.0802005012531328                    10.5                    10.5         5.8372274176623      -0.247911613918523     -0.0398469185838953      0.0685350055669426        19.5632615119111                       0                       0        2.18486557417702       -20.6749528595057        2.85435116227358 
                    0.5                     0.5      0.0827067669172932                    10.5                    10.5        5.92745227304423      -0.246875426228904     -0.0391538113029963      0.0706310868829168        19.5632210707013                       0                       0        2.20171969843867       -20.5860194554391        2.93766366840066 
                    0.5                     0.5      0.0852130325814536                    10.5                    10.5        6.00752221478377      -0.245869646789695     -0.0385186203378378      0.0726393397922418         19.563978001757                       0                       0        2.21553449586936       -20.5082404396067        3.00641962134752 
                    0.5                     0.5       0.087719298245614                    10.5                    10.5        6.04591593601809      -0.244988664172388     -0.0381211205269963      0.0742871409861673        19.5680073843107                       0                       0        2.21687575983095       -20.4762395327787        3.01543482794253 
                    0.5                     0.5      0.0902255639097744                    10.5                    10.5        6.08430965725242      -0.244107681555082     -0.0377236207161548      0.0759349421800929        19.5720367668645                       0                       0        2.21821702379254       -20.4442386259507        3.02445003453754 
                    0.5                     0.5      0.0927318295739348                    10.5                    10.5        6.12270337848674      -0.243226698937776     -0.0373261209053133      0.0775827433740185        19.5760661494182                       0                       0        2.21955828775413       -20.4122377191227        3.03346524113255 
                    0.5                     0.5      0.0952380952380952                    10.5                    10.5        6.16109709972107       -0.24234571632047     -0.0369286210944718      0.0792305445679441        19.5800955319719                       0                       0        2.22089955171572       -20.3802368122947        3.04248044772756 
                    0.5                     0.5      0.0977443609022556                    10.5                    10.5         6.1994908209554      -0.241464733703163     -0.0365311212836303      0.0808783457618696        19.5841249145257                       0                       0        2.22224081567731       -20.3482359054666        3.05149565432257 
                    0.5                     0.5       0.100250626566416                    10.5                    10.5        6.23788454218972      -0.240583751085857     -0.0361336214727888      0.0825261469557952        19.5881542970794                       0                       0         2.2235820796389       -20.3162349986386        3.06051086091758 
                    0.5                     0.5       0.102756892230576                    10.5                    10.5        6.27627826342404      -0.239702768468551     -0.0357361216619473      0.0841739481497208        19.5921836796332                       0                       0        2.22492334360049       -20.2842340918106        3.06952606751259 
                    0.5                     0.5       0.105263157894737                    10.5                    10.5        6.31467198465837      -0.238821785851244     -0.0353386218511058      0.0858217493436464        19.5962130621869                       0                       0        2.22626460756208       -20.2522331849826         3.0785412741076 
                    0.5                     0.5       0.107769423558897                    10.5                    10.5         6.3530657058927      -0.237940803233938     -0.0349411220402643      0.0874695505375719        19.6002424447407                       0                       0        2.22760587152367       -20.2202322781546        3.08755648070261 
                    0.5                     0.5       0.110275689223058                    10.5                    10.5        6.39145942712702      -0.237059820616632     -0.0345436222294228      0.0891173517314975        19.6042718272944                       0                       0        2.22894713548526       -20.1882313713265        3.09657168729762 
                    0.5                     0.5       0.112781954887218                    10.5                    10.5        6.42985314836135      -0.236178837999325     -0.0341461224185813      0.0907651529254231        19.6083012098481                       0                       0        2.23028839944685       -20.1562304644985        3.10558689389263 
                    0.5                     0.5       0.115288220551378                    10.5                    10.5        6.46824686959567      -0.235297855382019     -0.0337486226077398      0.0924129541193487        19.6123305924019                       0                       0        2.23162966340844       -20.1242295576705        3.11460210048765 
                    0.5                     0.5       0.117794486215539                    10.5                    10.5           6.50664059083      -0.234416872764713     -0.0333511227968983      0.0940607553132742        19.6163599749556                       0                       0        2.23297092737003       -20.0922286508425        3.12361730708266 
                    0.5                     0.5       0.120300751879699                    10.5                    10.5        6.54503431206432      -0.233535890147406     -0.0329536229860568      0.0957085565071998        19.6203893575094                       0                       0        2.23431219133162       -20.0602277440145        3.13263251367767 
                    0.5                     0.5        0.12280701754386                    10.5                    10.5        6.58342803329865        -0.2326549075301     -0.0325561231752153      0.0973563577011254        19.6244187400631                       0                       0         2.2356534552932       -20.0282268371864        3.14164772027268 
                    0.5                     0.5        0.12531328320802                    10.5                    10.5        6.62182175453297      -0.231773924912794     -0.0321586233643738       0.099004158895051        19.6284481226169                       0                       0        2.23699471925479       -19.9962259303584        3.15066292686769 
                    0.5                     0.5        0.12781954887218                    10.5                    10.5         6.6602154757673      -0.230892942295487     -0.0317611235535323       0.100651960088977        19.6324775051706                       0                       0        2.23833598321638       -19.9642250235304         3.1596781334627 
                    0.5                     0.5       0.130325814536341                    10.5                    10.5        6.69860919700163      -0.230011959678181     -0.0313636237426908       0.102299761282902        19.6365068877243                       0                       0        2.23967724717797       -19.9322241167024        3.16869334005771 
                    0.5                     0.5       0.132832080200501                    10.5                    10.5        6.73700291823595      -0.229130977060875     -0.0309661239318493       0.103947562476828        19.6405362702781                       0                       0        2.24101851113956       -19.9002232098744        3.17770854665272 
                    0.5                     0.5       0.135338345864662                    10.5                    10.5        6.77539663947028      -0.228249994443568     -0.0305686241210078       0.105595363670753        19.6445656528318                       0                       0        2.24235977510115       -19.8682223030464        3.18672375324773 
                    0.5                     0.5       0.137844611528822                    10.5                    10.5         6.8137903607046      -0.227369011826262     -0.0301711243101663       0.107243164864679        19.6485950353856                       0                       0        2.24370103906274       -19.8362213962183        3.19573895984274 
                    0.5                     0.5       0.140350877192982                    10.5                    10.5        6.85218408193893      -0.226488029208956     -0.0297736244993248       0.108890966058604        19.6526244179393                       0                       0        2.24504230302433       -19.8042204893903        3.20475416643775 
                    0.5                     0.5       0.142857142857143                    10.5                    10.5        6.89057780317325       -0.22560704659165     -0.0293761246884833        0.11053876725253        19.6566538004931                       0                       0        2.24638356698592       -19.7722195825623        3.21376937303276 
                    0.5                     0.5       0.145363408521303                    10.5                    10.5        6.92897152440758      -0.224726063974343     -0.0289786248776418       0.112186568446456        19.6606831830468                       0                       0        2.24772483094751       -19.7402186757343        3.22278457962778 
                    0.5                     0.5       0.147869674185464                    10.5                    10.5         6.9673652456419      -0.223845081357037     -0.0285811250668003       0.113834369640381        19.6647125656005                       0                       0         2.2490660949091       -19.7082177689063        3.23179978622279 
                    0.5                     0.5       0.150375939849624                    10.5                    10.5        7.00375933911567      -0.223021670057093     -0.0282222561955174       0.115461534848591        19.6690216856963                       0                       0         2.2487746177786       -19.6794424269853        3.23996381084688 
                    0.5                     0.5       0.152882205513784                    10.5                    10.5        7.02882199725113      -0.222524502307525     -0.0280823000650465       0.116971760623179        19.6749160147649                       0                       0        2.23923076854461       -19.6689456271488        3.24330438099867 
                    0.5                     0.5       0.155388471177945                    10.5                    10.5        7.05388465538658      -0.222027334557958     -0.0279423439345756       0.118481986397767        19.6808103438335                       0                       0        2.22968691931061       -19.6584488273123        3.24664495115046 
                    0.5                     0.5       0.157894736842105                    10.5                    10.5        7.07894731352203       -0.22153016680839     -0.0278023878041047       0.119992212172354        19.6867046729021                       0                       0        2.22014307007662       -19.6479520274758        3.24998552130224 
                    0.5                     0.5       0.160401002506266                    10.5                    10.5        7.10400997165749      -0.221032999058822     -0.0276624316736338       0.121502437946942        19.6925990019708                       0                       0        2.21059922084262       -19.6374552276393        3.25332609145403 
                    0.5                     0.5       0.162907268170426                    10.5                    10.5        7.12907262979294      -0.220535831309254     -0.0275224755431628       0.123012663721529        19.6984933310394                       0                       0        2.20105537160863       -19.6269584278028        3.25666666160582 
                    0.5                     0.5       0.165413533834586                    10.5                    10.5         7.1541352879284      -0.220038663559687     -0.0273825194126919       0.124522889496117         19.704387660108                       0                       0        2.19151152237463       -19.6164616279663        3.26000723175761 
                    0.5                     0.5       0.167919799498747                    10.5                    10.5        7.17919794606385      -0.219541495810119      -0.027242563282221       0.126033115270704        19.7102819891767                       0                       0        2.18196767314064       -19.6059648281297         3.2633478019094 
                    0.5                     0.5       0.170426065162907                    10.5                    10.5        7.20426060419931      -0.219044328060551     -0.0271026071517501       0.127543341045292        19.7161763182453                       0                       0        2.17242382390664       -19.5954680282932        3.26668837206119 
                    0.5                     0.5       0.172932330827068                    10.5                    10.5        7.22932326233476      -0.218547160310984     -0.0269626510212791       0.129053566819879        19.7220706473139                       0                       0        2.16287997467265       -19.5849712284567        3.27002894221298 
                    0.5                     0.5       0.175438596491228                    10.5                    10.5        7.25438592047022      -0.218049992561416     -0.0268226948908082       0.130563792594467        19.7279649763826                       0                       0        2.15333612543865       -19.5744744286202        3.27336951236477 
                    0.5                     0.5       0.177944862155388                    10.5                    10.5        7.27944857860567      -0.217552824811848     -0.0266827387603373       0.132074018369055        19.7338593054512                       0                       0        2.14379227620466       -19.5639776287837        3.27671008251656 
                    0.5                     0.5       0.180451127819549                    10.5                    10.5        7.30451123674113       -0.21705565706228     -0.0265427826298664       0.133584244143642        19.7397536345198                       0                       0        2.13424842697067       -19.5534808289472        3.28005065266835 
                    0.5                     0.5       0.182957393483709                    10.5                    10.5        7.32957389487658      -0.216558489312713     -0.0264028264993955        0.13509446991823        19.7456479635885                       0                       0        2.12470457773667       -19.5429840291107        3.28339122282014 
                    0.5                     0.5        0.18546365914787                    10.5                    10.5        7.35463655301204      -0.216061321563145     -0.0262628703689245       0.136604695692817        19.7515422926571                       0                       0        2.11516072850268       -19.5324872292741        3.28673179297192 
                    0.5                     0.5        0.18796992481203                    10.5                    10.5        7.37969921114749      -0.215564153813577     -0.0261229142384536       0.138114921467405        19.7574366217257                       0                       0        2.10561687926868       -19.5219904294376        3.29007236312371 
                    0.5                     0.5        0.19047619047619                    10.5                    10.5        7.40476186928295      -0.215066986064009     -0.0259829581079827       0.139625147241992        19.7633309507943                       0                       0        2.09607303003469       -19.5114936296011         3.2934129332755 
                    0.5                     0.5       0.192982456140351                    10.5                    10.5         7.4298245274184      -0.214569818314442     -0.0258430019775118        0.14113537301658         19.769225279863                       0                       0        2.08652918080069       -19.5009968297646        3.29675350342729 
                    0.5                     0.5       0.195488721804511                    10.5                    10.5        7.45488718555386      -0.214072650564874     -0.0257030458470409       0.142645598791167        19.7751196089316                       0                       0         2.0769853315667       -19.4905000299281        3.30009407357908 
                    0.5                     0.5       0.197994987468672                    10.5                    10.5        7.47994984368931      -0.213575482815306     -0.0255630897165699       0.144155824565755        19.7810139380002                       0                       0         2.0674414823327       -19.4800032300916        3.30343464373087 
                    0.5                     0.5       0.200501253132832                    10.5                    10.5        7.50501250182477      -0.213078315065739      -0.025423133586099       0.145666050340343        19.7869082670689                       0                       0        2.05789763309871       -19.4695064302551        3.30677521388266 
                    0.5                     0.5       0.203007518796992                    10.5                    10.5        7.53007515996022      -0.212581147316171     -0.0252831774556281        0.14717627611493        19.7928025961375                       0                       0        2.04835378386471       -19.4590096304185        3.31011578403445 