VARIABLES = "X"
 "Y"
 "Z"
 "I"
 "J"
 "K"
 "U"
 "V"
 "W"
 "T"
 "fu"
 "fv"
 "X Pressure Gradient"
 "Y Pressure Gradient"
 "Z Pressure Gradient"
ZONE
DT=(DOUBLE,DOUBLE,DOUBLE,DOUBLE,DOUBLE,DOUBLE,DOUBLE,DOUBLE,DOUBLE,DOUBLE,DOUBLE,DOUBLE,DOUBLE,DOUBLE,DOUBLE)
                      0                     0.5                     0.5                       0                    10.5                    10.5                       0                       0                       0                      10                       0                       0        195.354484558105     -0.0944658489897847        1.19055050611496 
     0.0025062656641604                     0.5                     0.5         1.0006265719888                    10.5                    10.5    0.000638031796567624      0.0030374664630765     -0.0485817751298954        10.5602511602291                       0                       0         149.34063824871      -0.165512452648262        3.89439696943285 
     0.0050125313283208                     0.5                     0.5        1.25125313233607                    10.5                    10.5    0.000750751096963567     0.00432399531979073     -0.0395919255731928        10.9971905421212                       0                       0        128.198665346432      -0.183221878222432        4.94059568503744 
     0.0075187969924812                     0.5                     0.5        1.50187969268335                    10.5                    10.5    0.000863470397359508     0.00561052417650495     -0.0306020760164901        11.4341299240132                       0                       0        107.056692444154      -0.200931303796601        5.98679440064204 
     0.0100250626566416                     0.5                     0.5        1.75250625303062                    10.5                    10.5     0.00097618969775545     0.00689705303321918     -0.0216122264597875        11.8710693059053                       0                       0        85.9147195418755      -0.218640729370771        7.03299311624663 
      0.012531328320802                     0.5                     0.5        2.00156640683483                    10.5                    10.5     0.00109833680954271     0.00815352606713024     -0.0126464662716198        12.3024906952599                       0                       0        64.9580983017174      -0.236476564310489         8.0669850868015 
     0.0150375939849624                     0.5                     0.5        2.12687969867917                    10.5                    10.5     0.00196528550556302     0.00703557480360221    -0.00558377765577224        12.2979880495383                       0                       0        58.6443465311562      -0.264298799254874        8.13663839231503 
     0.0175438596491228                     0.5                     0.5        2.25219299052352                    10.5                    10.5     0.00283223420158333     0.00591762354007419     0.00147891096007529        12.2934854038167                       0                       0         52.330594760595      -0.292121034199259        8.20629169782857 
     0.0200501253132832                     0.5                     0.5        2.37750628236786                    10.5                    10.5     0.00369918289760364     0.00479967227654617     0.00854159957592284        12.2889827580951                       0                       0        46.0168429900338      -0.319943269143644         8.2759450033421 
     0.0225563909774436                     0.5                     0.5        2.50281957421221                    10.5                    10.5     0.00456613159362394     0.00368172101301815      0.0156042881917704        12.2844801123735                       0                       0        39.7030912194726      -0.347765504088029        8.34559830885564 
      0.025062656641604                     0.5                     0.5        2.62813286605655                    10.5                    10.5     0.00543308028964425     0.00256376974949013      0.0226669768076179        12.2799774666519                       0                       0        33.3893394489114      -0.375587739032414        8.41525161436918 
     0.0275689223057644                     0.5                     0.5         2.7534461579009                    10.5                    10.5     0.00630002898566456     0.00144581848596211      0.0297296654234654        12.2754748209303                       0                       0        27.0755876783502      -0.403409973976799        8.48490491988271 
     0.0300751879699248                     0.5                     0.5        2.87875944974525                    10.5                    10.5     0.00716697768168487     0.00032786722243409       0.036792354039313        12.2709721752087                       0                       0        20.7618359077891      -0.431232208921185        8.55455822539625 
     0.0325814536340852                     0.5                     0.5        3.00271516076471                    10.5                    10.5     0.00804614969034164   -0.000777885836086254      0.0437094764050794        12.2669252401545                       0                       0        14.6180070014244      -0.459442876771856        8.61838567273982 
     0.0350877192982456                     0.5                     0.5        3.08625734625039                    10.5                    10.5     0.00928919480937909     -0.0015205132077152      0.0462932690296532        12.2764442559115                       0                       0        13.5325745346258      -0.499216718533586        8.50878442722487 
      0.037593984962406                     0.5                     0.5        3.16979953173607                    10.5                    10.5      0.0105322399284165    -0.00226314057934415       0.048877061654227        12.2859632716684                       0                       0        12.4471420678272      -0.538990560295316        8.39918318170993 
     0.0401002506265664                     0.5                     0.5        3.25334171722175                    10.5                    10.5       0.011775285047454     -0.0030057679509731      0.0514608542788009        12.2954822874254                       0                       0        11.3617096010286      -0.578764402057045        8.28958193619499 
     0.0426065162907268                     0.5                     0.5        3.33688390270743                    10.5                    10.5      0.0130183301664915    -0.00374839532260204      0.0540446469033747        12.3050013031823                       0                       0          10.27627713423      -0.618538243818775        8.17998069068005 
     0.0451127819548872                     0.5                     0.5        3.42042608819311                    10.5                    10.5      0.0142613752855289    -0.00449102269423099      0.0566284395279485        12.3145203189393                       0                       0        9.19084466743142      -0.658312085580505        8.07037944516511 
     0.0476190476190476                     0.5                     0.5        3.50396827367878                    10.5                    10.5      0.0155044204045664    -0.00523365006585994      0.0592122321525223        12.3240393346963                       0                       0        8.10541220063281      -0.698085927342235        7.96077819965017 
      0.050125313283208                     0.5                     0.5        3.58751045916446                    10.5                    10.5      0.0167474655236038    -0.00597627743748889      0.0617960247770962        12.3335583504532                       0                       0        7.01997973383421      -0.737859769103965        7.85117695413523 
     0.0526315789473684                     0.5                     0.5        3.67105264465014                    10.5                    10.5      0.0179905106426413    -0.00671890480911783        0.06437981740167        12.3430773662102                       0                       0        5.93454726703561      -0.777633610865694        7.74157570862029 
     0.0551378446115288                     0.5                     0.5        3.75459483013582                    10.5                    10.5      0.0192335557616787    -0.00746153218074678      0.0669636100262438        12.3525963819671                       0                       0        4.84911480023701      -0.817407452627424        7.63197446310535 
     0.0576441102756892                     0.5                     0.5         3.8381370156215                    10.5                    10.5      0.0204766008807162    -0.00820415955237573      0.0695474026508177        12.3621153977241                       0                       0        3.76368233343841      -0.857181294389154        7.52237321759041 
     0.0601503759398496                     0.5                     0.5        3.92167920110718                    10.5                    10.5      0.0217196459997536    -0.00894678692400467      0.0721311952753915         12.371634413481                       0                       0         2.6782498666398      -0.896955136150884        7.41277197207547 
       0.06265664160401                     0.5                     0.5        4.00391604018778                    10.5                    10.5      0.0229306295171996    -0.00963158384912291      0.0745372561527692        12.3809791441942                       0                       0        1.65410030287108      -0.934861755507231        7.30790608916793 
     0.0651629072681704                     0.5                     0.5        4.06657268319228                    10.5                    10.5      0.0236606890107732    -0.00944892407658039      0.0742773408222054        12.3877095992508                       0                       0        1.54919428455051      -0.944760038782831        7.27407064537147 
     0.0676691729323308                     0.5                     0.5        4.12922932619677                    10.5                    10.5      0.0243907485043469    -0.00926626430403787      0.0740174254916416        12.3944400543075                       0                       0        1.44428826622995      -0.954658322058431        7.24023520157501 
     0.0701754385964912                     0.5                     0.5        4.19188596920127                    10.5                    10.5      0.0251208079979205    -0.00908360453149536      0.0737575101610777        12.4011705093641                       0                       0        1.33938224790938      -0.964556605334032        7.20639975777854 
     0.0726817042606516                     0.5                     0.5        4.25454261220576                    10.5                    10.5      0.0258508674914941    -0.00890094475895284      0.0734975948305139        12.4079009644207                       0                       0        1.23447622958882      -0.974454888609632        7.17256431398208 
      0.075187969924812                     0.5                     0.5        4.31719925521026                    10.5                    10.5      0.0265809269850678    -0.00871828498641032        0.07323767949995        12.4146314194773                       0                       0        1.12957021126826      -0.984353171885233        7.13872887018561 
     0.0776942355889724                     0.5                     0.5        4.37985589821475                    10.5                    10.5      0.0273109864786414     -0.0085356252138678      0.0729777641693862         12.421361874534                       0                       0        1.02466419294769      -0.994251455160833        7.10489342638915 
     0.0802005012531328                     0.5                     0.5        4.44251254121925                    10.5                    10.5       0.028041045972215    -0.00835296544132529      0.0727178488388223        12.4280923295906                       0                       0       0.919758174627127       -1.00414973843643        7.07105798259268 
     0.0827067669172932                     0.5                     0.5        4.50516918422374                    10.5                    10.5      0.0287711054657887    -0.00817030566878277      0.0724579335082585        12.4348227846472                       0                       0       0.814852156306562       -1.01404802171203        7.03722253879622 
     0.0852130325814536                     0.5                     0.5        4.56782582722824                    10.5                    10.5      0.0295011649593623    -0.00798764589624025      0.0721980181776946        12.4415532397038                       0                       0       0.709946137985998       -1.02394630498763        7.00338709499975 
      0.087719298245614                     0.5                     0.5        4.63048247023273                    10.5                    10.5      0.0302312244529359    -0.00780498612369773      0.0719381028471308        12.4482836947605                       0                       0       0.605040119665433       -1.03384458826324        6.96955165120329 
     0.0902255639097744                     0.5                     0.5        4.69313911323723                    10.5                    10.5      0.0309612839465096    -0.00762232635115521      0.0716781875165669        12.4550141498171                       0                       0       0.500134101344869       -1.04374287153884        6.93571620740682 
     0.0927318295739348                     0.5                     0.5        4.75579575624172                    10.5                    10.5      0.0316913434400832     -0.0074396665786127      0.0714182721860031        12.4617446048737                       0                       0       0.395228083024304       -1.05364115481444        6.90188076361036 
     0.0952380952380952                     0.5                     0.5        4.81845239924622                    10.5                    10.5      0.0324214029336568    -0.00725700680607018      0.0711583568554393        12.4684750599303                       0                       0        0.29032206470374       -1.06353943809004         6.8680453198139 
     0.0977443609022556                     0.5                     0.5        4.88110904225071                    10.5                    10.5      0.0331514624272305    -0.00707434703352766      0.0708984415248754        12.4752055149869                       0                       0       0.185416046383175       -1.07343772136564        6.83420987601743 
      0.100250626566416                     0.5                     0.5        4.94376568525521                    10.5                    10.5      0.0338815219208041    -0.00689168726098514      0.0706385261943116        12.4819359700436                       0                       0       0.080510028062611       -1.08333600464124        6.80037443222097 
      0.102756892230576                     0.5                     0.5        5.00513786203356                    10.5                    10.5      0.0345267158150412    -0.00667035512370796      0.0702595591917289        12.4878976806677                       0                       0     0.00626893213599716       -1.09114999993231        6.76620963563897 
      0.105263157894737                     0.5                     0.5        5.05526317083522                    10.5                    10.5      0.0344288211234702    -0.00611040530099417      0.0688381681764703        12.4871282161433                       0                       0        0.20053184718403       -1.08071383705631         6.7291610051178 
      0.107769423558897                     0.5                     0.5        5.10538847963687                    10.5                    10.5      0.0343309264318993    -0.00555045547828039      0.0674167771612117        12.4863587516189                       0                       0       0.394794762232062       -1.07027767418031        6.69211237459662 
      0.110275689223058                     0.5                     0.5        5.15551378843853                    10.5                    10.5      0.0342330317403283     -0.0049905056555666      0.0659953861459532        12.4855892870945                       0                       0       0.589057677280094       -1.05984151130431        6.65506374407545 
      0.112781954887218                     0.5                     0.5        5.20563909724019                    10.5                    10.5      0.0341351370487573    -0.00443055583285281      0.0645739951306946        12.4848198225701                       0                       0       0.783320592328127       -1.04940534842831        6.61801511355428 
      0.115288220551378                     0.5                     0.5        5.25576440604184                    10.5                    10.5      0.0340372423571864    -0.00387060601013903      0.0631526041154361        12.4840503580457                       0                       0       0.977583507376159       -1.03896918555231        6.58096648303311 
      0.117794486215539                     0.5                     0.5         5.3058897148435                    10.5                    10.5      0.0339393476656154    -0.00331065618742524      0.0617312131001775        12.4832808935213                       0                       0        1.17184642242419       -1.02853302267631        6.54391785251194 
      0.120300751879699                     0.5                     0.5        5.35601502364516                    10.5                    10.5      0.0338414529740445    -0.00275070636471145      0.0603098220849189        12.4825114289969                       0                       0        1.36610933747222       -1.01809685980031        6.50686922199077 
       0.12280701754386                     0.5                     0.5        5.40614033244681                    10.5                    10.5      0.0337435582824735    -0.00219075654199767      0.0588884310696603        12.4817419644726                       0                       0        1.56037225252026       -1.00766069692431         6.4698205914696 
       0.12531328320802                     0.5                     0.5        5.45626564124847                    10.5                    10.5      0.0336456635909025    -0.00163080671928388      0.0574670400544018        12.4809724999482                       0                       0        1.75463516756829      -0.997224534048308        6.43277196094843 
       0.12781954887218                     0.5                     0.5        5.50639095005012                    10.5                    10.5      0.0335477688993316    -0.00107085689657009      0.0560456490391432        12.4802030354238                       0                       0        1.94889808261632      -0.986788371172307        6.39572333042726 
      0.130325814536341                     0.5                     0.5        5.55651625885178                    10.5                    10.5      0.0334498742077606   -0.000510907073856307      0.0546242580238846        12.4794335708994                       0                       0        2.14316099766435      -0.976352208296306        6.35867469990609 
      0.132832080200501                     0.5                     0.5        5.60664156765344                    10.5                    10.5      0.0333519795161896   4.90427488574795E-005       0.053202867008626         12.478664106375                       0                       0        2.33742391271239      -0.965916045420305        6.32162606938491 
      0.135338345864662                     0.5                     0.5        5.65676687645509                    10.5                    10.5      0.0332540848246187    0.000608992571571266      0.0517814759933675        12.4778946418506                       0                       0        2.53168682776042      -0.955479882544305        6.28457743886374 
      0.137844611528822                     0.5                     0.5        5.70689218525675                    10.5                    10.5      0.0331561901330477     0.00116894239428505      0.0503600849781089        12.4771251773262                       0                       0        2.72594974280845      -0.945043719668304        6.24752880834257 
      0.140350877192982                     0.5                     0.5         5.7570174940584                    10.5                    10.5      0.0330582954414767     0.00172889221699884      0.0489386939628503        12.4763557128018                       0                       0        2.92021265785648      -0.934607556792303         6.2104801778214 
      0.142857142857143                     0.5                     0.5        5.80714280286006                    10.5                    10.5      0.0329604007499058     0.00228884203971263      0.0475173029475918        12.4755862482774                       0                       0        3.11447557290451      -0.924171393916302        6.17343154730023 
      0.145363408521303                     0.5                     0.5        5.85726811166172                    10.5                    10.5      0.0328625060583348     0.00284879186242641      0.0460959119323332         12.474816783753                       0                       0        3.30873848795255      -0.913735231040302        6.13638291677906 
      0.147869674185464                     0.5                     0.5        5.90739342046337                    10.5                    10.5      0.0327646113667639      0.0034087416851402      0.0446745209170746        12.4740473192287                       0                       0        3.50300140300058      -0.903299068164301        6.09933428625789 
      0.150375939849624                     0.5                     0.5        5.95751872926503                    10.5                    10.5      0.0326667166751929     0.00396869150785399      0.0432531299018161        12.4732778547043                       0                       0        3.69726431804861        -0.8928629052883        6.06228565573672 
      0.152882205513784                     0.5                     0.5        6.00637003203864                    10.5                    10.5      0.0324426179391494     0.00452150403271824      0.0418746544504223        12.4729343270183                       0                       0         3.9747859145952      -0.891431464297543        6.00242858906494 
      0.155388471177945                     0.5                     0.5        6.04814112478148                    10.5                    10.5      0.0315171479992589      0.0050346514643926      0.0407346796019008        12.4749579170767                       0                       0        4.71501250540283      -0.940043210554544        5.81581504333034 
      0.157894736842105                     0.5                     0.5        6.08991221752432                    10.5                    10.5      0.0305916780593683     0.00554779889606697      0.0395947047533793        12.4769815071352                       0                       0        5.45523909621046      -0.988654956811546        5.62920149759574 
      0.160401002506266                     0.5                     0.5        6.13168331026716                    10.5                    10.5      0.0296662081194777     0.00606094632774133      0.0384547299048578        12.4790050971937                       0                       0         6.1954656870181       -1.03726670306855        5.44258795186114 
      0.162907268170426                     0.5                     0.5           6.17345440301                    10.5                    10.5      0.0287407381795871     0.00657409375941569      0.0373147550563363        12.4810286872521                       0                       0        6.93569227782573       -1.08587844932555        5.25597440612654 
      0.165413533834586                     0.5                     0.5        6.21522549575284                    10.5                    10.5      0.0278152682396965     0.00708724119109006      0.0361747802078148        12.4830522773106                       0                       0        7.67591886863337       -1.13449019558255        5.06936086039193 
      0.167919799498747                     0.5                     0.5        6.25699658849568                    10.5                    10.5      0.0268897982998059     0.00760038862276442      0.0350348053592933        12.4850758673691                       0                       0          8.416145459441       -1.18310194183956        4.88274731465733 
      0.170426065162907                     0.5                     0.5        6.29876768123852                    10.5                    10.5      0.0259643283599153     0.00811353605443878      0.0338948305107719        12.4870994574276                       0                       0        9.15637205024863       -1.23171368809656        4.69613376892273 
      0.172932330827068                     0.5                     0.5        6.34053877398135                    10.5                    10.5      0.0250388584200248     0.00862668348611314      0.0327548556622504         12.489123047486                       0                       0        9.89659864105627       -1.28032543435356        4.50952022318813 
      0.175438596491228                     0.5                     0.5        6.38230986672419                    10.5                    10.5      0.0241133884801342     0.00913983091778751      0.0316148808137289        12.4911466375445                       0                       0        10.6368252318639       -1.32893718061056        4.32290667745353 
      0.177944862155388                     0.5                     0.5        6.42408095946703                    10.5                    10.5      0.0231879185402436     0.00965297834946187      0.0304749059652074         12.493170227603                       0                       0        11.3770518226715       -1.37754892686756        4.13629313171893 
      0.180451127819549                     0.5                     0.5        6.46585205220987                    10.5                    10.5       0.022262448600353      0.0101661257811362      0.0293349311166859        12.4951938176614                       0                       0        12.1172784134792       -1.42616067312457        3.94967958598433 
      0.182957393483709                     0.5                     0.5        6.50762314495271                    10.5                    10.5      0.0213369786604624      0.0106792732128106      0.0281949562681644        12.4972174077199                       0                       0        12.8575050042868       -1.47477241938157        3.76306604024973 
       0.18546365914787                     0.5                     0.5        6.54939423769555                    10.5                    10.5      0.0204115087205718       0.011192420644485      0.0270549814196429        12.4992409977784                       0                       0        13.5977315950944       -1.52338416563857        3.57645249451513 
       0.18796992481203                     0.5                     0.5        6.59116533043839                    10.5                    10.5      0.0194860387806812      0.0117055680761593      0.0259150065711215        12.5012645878368                       0                       0        14.3379581859021       -1.57199591189557        3.38983894878052 
       0.19047619047619                     0.5                     0.5        6.63293642318123                    10.5                    10.5      0.0185605688407907      0.0122187155078337         0.0247750317226        12.5032881778953                       0                       0        15.0781847767097       -1.62060765815257        3.20322540304592 
      0.192982456140351                     0.5                     0.5        6.67470751592407                    10.5                    10.5      0.0176350989009001      0.0127318629395081      0.0236350568740785        12.5053117679538                       0                       0        15.8184113675173       -1.66921940440958        3.01661185731132 
      0.195488721804511                     0.5                     0.5        6.71647860866691                    10.5                    10.5      0.0167096289610095      0.0132450103711824       0.022495082025557        12.5073353580123                       0                       0         16.558637958325       -1.71783115066658        2.82999831157672 
      0.197994987468672                     0.5                     0.5        6.75824970140975                    10.5                    10.5      0.0157841590211189      0.0137581578028568      0.0213551071770355        12.5093589480707                       0                       0        17.2988645491326       -1.76644289692358        2.64338476584212 
      0.200501253132832                     0.5                     0.5        6.80002079415259                    10.5                    10.5      0.0148586890812283      0.0142713052345311       0.020215132328514        12.5113825381292                       0                       0        18.0390911399402       -1.81505464318058        2.45677122010752 
      0.203007518796992                     0.5                     0.5        6.84179188689543                    10.5                    10.5      0.0139332191413377      0.0147844526662055      0.0190751574799925        12.5134061281877                       0                       0        18.7793177307479       -1.86366638943758        2.27015767437292 