VARIABLES = "X"
 "Y"
 "Z"
 "I"
 "J"
 "K"
 "U"
 "V"
 "W"
 "T"
 "fu"
 "fv"
 "X Pressure Gradient"
 "Y Pressure Gradient"
 "Z Pressure Gradient"
ZONE
DT=(DOUBLE,DOUBLE,DOUBLE,DOUBLE,DOUBLE,DOUBLE,DOUBLE,DOUBLE,DOUBLE,DOUBLE,DOUBLE,DOUBLE,DOUBLE,DOUBLE,DOUBLE)
                    0.5                     0.5                       0                     5.5                     5.5                       0                       0                       0                       0       -12.5286531448364                       0                       0     -0.0252094836905599     -0.0310334553942084       -5.79477143287659 
                    0.5                     0.5      0.0025062656641604                     5.5                     5.5      0.0501253125362827    -0.00194432327712296    -0.00173314544298875  -6.95864639769222E-005       -12.5718420423798                       0                       0     -0.0255657596656608      -0.031325025131834       -5.71072849061903 
                    0.5                     0.5      0.0050125313283208                     5.5                     5.5       0.100250625072565    -0.00388864655424591     -0.0034662908859775   -0.000139172927953844       -12.6150309399232                       0                       0     -0.0259220356407617     -0.0316165948694596       -5.62668554836147 
                    0.5                     0.5      0.0075187969924812                     5.5                     5.5       0.150375937608848    -0.00583296983136887    -0.00519943632896625   -0.000208759391930767       -12.6582198374665                       0                       0     -0.0262783116158626     -0.0319081646070852       -5.54264260610391 
                    0.5                     0.5      0.0100250626566416                     5.5                     5.5       0.200501250145131    -0.00777729310849182      -0.006932581771955   -0.000278345855907689       -12.7014087350099                       0                       0     -0.0266345875909635     -0.0321997343447108       -5.45859966384634 
                    0.5                     0.5       0.012531328320802                     5.5                     5.5       0.250626562681413    -0.00972161638561478    -0.00866572721494375   -0.000347932319884611       -12.7445976325533                       0                       0     -0.0269908635660643     -0.0324913040823364       -5.37455672158879 
                    0.5                     0.5      0.0150375939849624                     5.5                     5.5       0.300751875217696     -0.0116659396627377     -0.0103988726579325   -0.000417518783861533       -12.7877865300966                       0                       0     -0.0273471395411652      -0.032782873819962       -5.29051377933122 
                    0.5                     0.5      0.0175438596491228                     5.5                     5.5       0.350877187753979     -0.0136102629398607     -0.0121320181009213   -0.000487105247838456         -12.83097542764                       0                       0     -0.0277034155162661     -0.0330744435575875       -5.20647083707367 
                    0.5                     0.5      0.0200501253132832                     5.5                     5.5       0.401002500290261     -0.0155545862169836       -0.01386516354391   -0.000556691711815378       -12.8741643251834                       0                       0      -0.028059691491367     -0.0333660132952131        -5.1224278948161 
                    0.5                     0.5      0.0225563909774436                     5.5                     5.5       0.451127812826544     -0.0174989094941066     -0.0155983089868988     -0.0006262781757923       -12.9173532227268                       0                       0     -0.0284159674664679     -0.0336575830328387       -5.03838495255854 
                    0.5                     0.5       0.025062656641604                     5.5                     5.5       0.501253125362827     -0.0194432327712296     -0.0173314544298875   -0.000695864639769222       -12.9605421202701                       0                       0     -0.0287722434415688     -0.0339491527704643       -4.95434201030098 
                    0.5                     0.5      0.0275689223057644                     5.5                     5.5       0.551378437899109     -0.0213875560483525     -0.0190645998728763   -0.000765451103746144       -13.0037310178135                       0                       0     -0.0291285194166697     -0.0342407225080899       -4.87029906804342 
                    0.5                     0.5      0.0300751879699248                     5.5                     5.5       0.601503750435392     -0.0233318793254755      -0.020797745315865   -0.000835037567723067       -13.0469199153569                       0                       0     -0.0294847953917706     -0.0345322922457155       -4.78625612578586 
                    0.5                     0.5      0.0325814536340852                     5.5                     5.5       0.651629062971675     -0.0252762026025984     -0.0225308907588538   -0.000904624031699989       -13.0901088129002                       0                       0     -0.0298410713668715     -0.0348238619833411        -4.7022131835283 
                    0.5                     0.5      0.0350877192982456                     5.5                     5.5       0.701754375507957     -0.0272205258797214     -0.0242640362018425   -0.000974210495676911       -13.1332977104436                       0                       0     -0.0301973473419724     -0.0351154317209667       -4.61817024127074 
                    0.5                     0.5       0.037593984962406                     5.5                     5.5        0.75187968804424     -0.0291648491568443     -0.0259971816448313    -0.00104379695965383        -13.176486607987                       0                       0     -0.0305536233170733     -0.0354070014585923       -4.53412729901318 
                    0.5                     0.5      0.0401002506265664                     5.5                     5.5       0.802005000580523     -0.0311091724339673       -0.02773032708782    -0.00111338342363076       -13.2196755055303                       0                       0     -0.0309098992921742     -0.0356985711962178       -4.45008435675562 
                    0.5                     0.5      0.0426065162907268                     5.5                     5.5       0.852130313116805     -0.0330534957110902     -0.0294634725308088    -0.00118296988760768       -13.2628644030737                       0                       0     -0.0312661752672751     -0.0359901409338434       -4.36604141449806 
                    0.5                     0.5      0.0451127819548872                     5.5                     5.5       0.902255625653088     -0.0349978189882132     -0.0311966179737975     -0.0012525563515846       -13.3060533006171                       0                       0      -0.031622451242376      -0.036281710671469        -4.2819984722405 
                    0.5                     0.5      0.0476190476190476                     5.5                     5.5        0.95238093818937     -0.0369421422653362     -0.0329297634167863    -0.00132214281556152       -13.3492421981605                       0                       0     -0.0319787272174769     -0.0365732804090946       -4.19795552998294 
                    0.5                     0.5       0.050125313283208                     5.5                     5.5        1.00125312531614     -0.0387696683073433     -0.0345561964552544    -0.00138884615155837       -13.3902814363787                       0                       0     -0.0323143616560668       -0.03683697412829       -4.11440619563331 
                    0.5                     0.5      0.0526315789473684                     5.5                     5.5        1.02631578065063     -0.0383780329935608     -0.0341550811184477    -0.00140076971309529       -13.3904768918002                       0                       0     -0.0322578044464221     -0.0365710201825202       -4.04023547023016 
                    0.5                     0.5      0.0551378446115288                     5.5                     5.5        1.05137843598511     -0.0379863976797783     -0.0337539657816411    -0.00141269327463221       -13.3906723472216                       0                       0     -0.0322012472367773     -0.0363050662367504       -3.96606474482701 
                    0.5                     0.5      0.0576441102756892                     5.5                     5.5         1.0764410913196     -0.0375947623659958     -0.0333528504448344    -0.00142461683616914       -13.3908678026431                       0                       0     -0.0321446900271325     -0.0360391122909806       -3.89189401942387 
                    0.5                     0.5      0.0601503759398496                     5.5                     5.5        1.10150374665408     -0.0372031270522132     -0.0329517351080278    -0.00143654039770606       -13.3910632580645                       0                       0     -0.0320881328174877     -0.0357731583452107       -3.81772329402072 
                    0.5                     0.5        0.06265664160401                     5.5                     5.5        1.12656640198857     -0.0368114917384307     -0.0325506197712211    -0.00144846395924299        -13.391258713486                       0                       0      -0.032031575607843     -0.0355072043994409       -3.74355256861757 
                    0.5                     0.5      0.0651629072681704                     5.5                     5.5        1.15162905732305     -0.0364198564246482     -0.0321495044344145    -0.00146038752077991       -13.3914541689074                       0                       0     -0.0319750183981982     -0.0352412504536711       -3.66938184321443 
                    0.5                     0.5      0.0676691729323308                     5.5                     5.5        1.17669171265754     -0.0360282211108656     -0.0317483890976079    -0.00147231108231683       -13.3916496243289                       0                       0     -0.0319184611885534     -0.0349752965079013       -3.59521111781128 
                    0.5                     0.5      0.0701754385964912                     5.5                     5.5        1.20175436799202     -0.0356365857970831     -0.0313472737608012    -0.00148423464385376       -13.3918450797503                       0                       0     -0.0318619039789087     -0.0347093425621314       -3.52104039240813 
                    0.5                     0.5      0.0726817042606516                     5.5                     5.5        1.22681702332651     -0.0352449504833006     -0.0309461584239946    -0.00149615820539068       -13.3920405351717                       0                       0     -0.0318053467692639     -0.0344433886163616       -3.44686966700499 
                    0.5                     0.5       0.075187969924812                     5.5                     5.5        1.25187967866099     -0.0348533151695181     -0.0305450430871879    -0.00150808176692761       -13.3922359905932                       0                       0     -0.0317487895596191     -0.0341774346705918       -3.37269894160184 
                    0.5                     0.5      0.0776942355889724                     5.5                     5.5        1.27694233399548     -0.0344616798557355     -0.0301439277503813    -0.00152000532846453       -13.3924314460146                       0                       0     -0.0316922323499744      -0.033911480724822       -3.29852821619869 
                    0.5                     0.5      0.0802005012531328                     5.5                     5.5        1.30200498932996      -0.034070044541953     -0.0297428124135746    -0.00153192889000145       -13.3926269014361                       0                       0     -0.0316356751403296     -0.0336455267790521       -3.22435749079555 
                    0.5                     0.5      0.0827067669172932                     5.5                     5.5        1.32706764466444     -0.0336784092281705      -0.029341697076768    -0.00154385245153838       -13.3928223568575                       0                       0     -0.0315791179306848     -0.0333795728332823        -3.1501867653924 
                    0.5                     0.5      0.0852130325814536                     5.5                     5.5        1.35213029999893      -0.033286773914388     -0.0289405817399614     -0.0015557760130753        -13.393017812279                       0                       0       -0.03152256072104     -0.0331136188875125       -3.07601603998925 
                    0.5                     0.5       0.087719298245614                     5.5                     5.5        1.37719295533341     -0.0328951386006054     -0.0285394664031547    -0.00156769957461223       -13.3932132677004                       0                       0     -0.0314660035113953     -0.0328476649417427       -3.00184531458611 
                    0.5                     0.5      0.0902255639097744                     5.5                     5.5         1.4022556106679     -0.0325035032868229     -0.0281383510663481    -0.00157962313614915       -13.3934087231219                       0                       0     -0.0314094463017505     -0.0325817109959728       -2.92767458918296 
                    0.5                     0.5      0.0927318295739348                     5.5                     5.5        1.42731826600238     -0.0321118679730404     -0.0277372357295414    -0.00159154669768607       -13.3936041785433                       0                       0     -0.0313528890921057      -0.032315757050203       -2.85350386377981 
                    0.5                     0.5      0.0952380952380952                     5.5                     5.5        1.45238092133687     -0.0317202326592579     -0.0273361203927348      -0.001603470259223       -13.3937996339648                       0                       0      -0.031296331882461     -0.0320498031044332       -2.77933313837667 
                    0.5                     0.5      0.0977443609022556                     5.5                     5.5        1.47744357667135     -0.0313285973454754     -0.0269350050559281    -0.00161539382075992       -13.3939950893862                       0                       0     -0.0312397746728162     -0.0317838491586633       -2.70516241297352 
                    0.5                     0.5       0.100250626566416                     5.5                     5.5        1.50250623200584     -0.0309369620316928     -0.0265338897191215    -0.00162731738229684       -13.3941905448077                       0                       0     -0.0311832174631714     -0.0315178952128935       -2.63099168757037 
                    0.5                     0.5       0.102756892230576                     5.5                     5.5        1.52756888734032     -0.0305453267179103     -0.0261327743823149    -0.00163924094383377       -13.3943860002291                       0                       0     -0.0311266602535267     -0.0312519412671237       -2.55682096216723 
                    0.5                     0.5       0.105263157894737                     5.5                     5.5        1.55263154267481     -0.0301536914041278     -0.0257316590455082    -0.00165116450537069       -13.3945814556505                       0                       0     -0.0310701030438819     -0.0309859873213539       -2.48265023676408 
                    0.5                     0.5       0.107769423558897                     5.5                     5.5        1.57769419800929     -0.0297620560903453     -0.0253305437087016    -0.00166308806690762        -13.394776911072                       0                       0     -0.0310135458342371      -0.030720033375584       -2.40847951136094 
                    0.5                     0.5       0.110275689223058                     5.5                     5.5        1.60275685334378     -0.0293704207765627     -0.0249294283718949    -0.00167501162844454       -13.3949723664934                       0                       0     -0.0309569886245924     -0.0304540794298142       -2.33430878595779 
                    0.5                     0.5       0.112781954887218                     5.5                     5.5        1.62781950867826     -0.0289787854627802     -0.0245283130350883    -0.00168693518998146       -13.3951678219149                       0                       0     -0.0309004314149476     -0.0301881254840444       -2.26013806055464 
                    0.5                     0.5       0.115288220551378                     5.5                     5.5        1.65288216401275     -0.0285871501489977     -0.0241271976982816    -0.00169885875151839       -13.3953632773363                       0                       0     -0.0308438742053028     -0.0299221715382746        -2.1859673351515 
                    0.5                     0.5       0.117794486215539                     5.5                     5.5        1.67794481934723     -0.0281955148352152      -0.023726082361475    -0.00171078231305531       -13.3955587327578                       0                       0      -0.030787316995658     -0.0296562175925047       -2.11179660974835 
                    0.5                     0.5       0.120300751879699                     5.5                     5.5        1.70300747468171     -0.0278038795214326     -0.0233249670246683    -0.00172270587459224       -13.3957541881792                       0                       0     -0.0307307597860133     -0.0293902636467349        -2.0376258843452 
                    0.5                     0.5        0.12280701754386                     5.5                     5.5         1.7280701300162     -0.0274122442076501     -0.0229238516878617    -0.00173462943612916       -13.3959496436007                       0                       0     -0.0306742025763685     -0.0291243097009651       -1.96345515894206 
                    0.5                     0.5        0.12531328320802                     5.5                     5.5        1.75313278535068     -0.0270206088938676     -0.0225227363510551    -0.00174655299766608       -13.3961450990221                       0                       0     -0.0306176453667237     -0.0288583557551953       -1.88928443353891 
                    0.5                     0.5        0.12781954887218                     5.5                     5.5        1.77819544068517     -0.0266289735800851     -0.0221216210142484    -0.00175847655920301       -13.3963405544436                       0                       0      -0.030561088157079     -0.0285924018094254       -1.81511370813576 
                    0.5                     0.5       0.130325814536341                     5.5                     5.5        1.80325809601965     -0.0262373382663025     -0.0217205056774418    -0.00177040012073993        -13.396536009865                       0                       0     -0.0305045309474342     -0.0283264478636556       -1.74094298273262 
                    0.5                     0.5       0.132832080200501                     5.5                     5.5        1.82832075135414       -0.02584570295252     -0.0213193903406351    -0.00178232368227686       -13.3967314652864                       0                       0     -0.0304479737377894     -0.0280604939178858       -1.66677225732947 
                    0.5                     0.5       0.135338345864662                     5.5                     5.5        1.85338340668862     -0.0254540676387375     -0.0209182750038285    -0.00179424724381378       -13.3969269207079                       0                       0     -0.0303914165281447      -0.027794539972116       -1.59260153192632 
                    0.5                     0.5       0.137844611528822                     5.5                     5.5        1.87844606202311      -0.025062432324955     -0.0205171596670218     -0.0018061708053507       -13.3971223761293                       0                       0     -0.0303348593184999     -0.0275285860263461       -1.51843080652318 
                    0.5                     0.5       0.140350877192982                     5.5                     5.5        1.90350871735759     -0.0246707970111724     -0.0201160443302152    -0.00181809436688763       -13.3973178315508                       0                       0     -0.0302783021088551     -0.0272626320805763       -1.44426008112003 
                    0.5                     0.5       0.142857142857143                     5.5                     5.5        1.92857137269208     -0.0242791616973899     -0.0197149289934085    -0.00183001792842455       -13.3975132869722                       0                       0     -0.0302217448992104     -0.0269966781348065       -1.37008935571688 
                    0.5                     0.5       0.145363408521303                     5.5                     5.5        1.95363402802656     -0.0238875263836074     -0.0193138136566019    -0.00184194148996148       -13.3977087423937                       0                       0     -0.0301651876895656     -0.0267307241890367       -1.29591863031374 
                    0.5                     0.5       0.147869674185464                     5.5                     5.5        1.97869668336105     -0.0234958910698249     -0.0189126983197953     -0.0018538650514984       -13.3979041978151                       0                       0     -0.0301086304799208     -0.0264647702432668       -1.22174790491059 
                    0.5                     0.5       0.150375939849624                     5.5                     5.5        2.00375933911567     -0.0231116381516414      -0.018532985847201    -0.00185302283661949       -13.3979812023073                       0                       0     -0.0299832623755088     -0.0261262202196332       -1.15387902952668 
                    0.5                     0.5       0.152882205513784                     5.5                     5.5        2.02882199725113     -0.0227692195888432     -0.0182745585341058    -0.00177983987270092       -13.3973869723466                       0                       0     -0.0294679585940641     -0.0253762847479906       -1.12172130369433 
                    0.5                     0.5       0.155388471177945                     5.5                     5.5        2.05388465538658     -0.0224268010260449     -0.0180161312210105    -0.00170665690878234        -13.396792742386                       0                       0     -0.0289526548126194     -0.0246263492763479       -1.08956357786197 
                    0.5                     0.5       0.157894736842105                     5.5                     5.5        2.07894731352203     -0.0220843824632466     -0.0177577039079152    -0.00163347394486376       -13.3961985124253                       0                       0     -0.0284373510311748     -0.0238764138047052       -1.05740585202961 
                    0.5                     0.5       0.160401002506266                     5.5                     5.5        2.10400997165749     -0.0217419639004483       -0.01749927659482    -0.00156029098094518       -13.3956042824646                       0                       0     -0.0279220472497301     -0.0231264783330626       -1.02524812619726 
                    0.5                     0.5       0.162907268170426                     5.5                     5.5        2.12907262979294     -0.0213995453376501     -0.0172408492817247    -0.00148710801702661        -13.395010052504                       0                       0     -0.0274067434682854     -0.0223765428614199      -0.993090400364899 
                    0.5                     0.5       0.165413533834586                     5.5                     5.5         2.1541352879284     -0.0210571267748518     -0.0169824219686294    -0.00141392505310803       -13.3944158225433                       0                       0     -0.0268914396868407     -0.0216266073897772      -0.960932674532543 
                    0.5                     0.5       0.167919799498747                     5.5                     5.5        2.17919794606385     -0.0207147082120535     -0.0167239946555341    -0.00134074208918945       -13.3938215925826                       0                       0     -0.0263761359053961     -0.0208766719181346      -0.928774948700186 
                    0.5                     0.5       0.170426065162907                     5.5                     5.5        2.20426060419931     -0.0203722896492553     -0.0164655673424389    -0.00126755912527087        -13.393227362622                       0                       0     -0.0258608321239514     -0.0201267364464919      -0.896617222867829 
                    0.5                     0.5       0.172932330827068                     5.5                     5.5        2.22932326233476      -0.020029871086457     -0.0162071400293436     -0.0011943761613523       -13.3926331326613                       0                       0     -0.0253455283425067     -0.0193768009748493      -0.864459497035473 
                    0.5                     0.5       0.175438596491228                     5.5                     5.5        2.25438592047022     -0.0196874525236587     -0.0159487127162483    -0.00112119319743372       -13.3920389027006                       0                       0     -0.0248302245610621     -0.0186268655032066      -0.832301771203116 
                    0.5                     0.5       0.177944862155388                     5.5                     5.5        2.27944857860567     -0.0193450339608604     -0.0156902854031531    -0.00104801023351514         -13.39144467274                       0                       0     -0.0243149207796174     -0.0178769300315639      -0.800144045370759 
                    0.5                     0.5       0.180451127819549                     5.5                     5.5        2.30451123674113     -0.0190026153980622     -0.0154318580900578   -0.000974827269596563       -13.3908504427793                       0                       0     -0.0237996169981727     -0.0171269945599213      -0.767986319538403 
                    0.5                     0.5       0.182957393483709                     5.5                     5.5        2.32957389487658     -0.0186601968352639     -0.0151734307769625   -0.000901644305677986       -13.3902562128186                       0                       0      -0.023284313216728     -0.0163770590882786      -0.735828593706046 
                    0.5                     0.5        0.18546365914787                     5.5                     5.5        2.35463655301204     -0.0183177782724656     -0.0149150034638673   -0.000828461341759408        -13.389661982858                       0                       0     -0.0227690094352834      -0.015627123616636      -0.703670867873689 
                    0.5                     0.5        0.18796992481203                     5.5                     5.5        2.37969921114749     -0.0179753597096673      -0.014656576150772   -0.000755278377840831       -13.3890677528973                       0                       0     -0.0222537056538387     -0.0148771881449933      -0.671513142041333 
                    0.5                     0.5        0.19047619047619                     5.5                     5.5        2.40476186928295     -0.0176329411468691     -0.0143981488376767   -0.000682095413922253       -13.3884735229367                       0                       0      -0.021738401872394     -0.0141272526733506      -0.639355416208976 
                    0.5                     0.5       0.192982456140351                     5.5                     5.5         2.4298245274184     -0.0172905225840708     -0.0141397215245814   -0.000608912450003675        -13.387879292976                       0                       0     -0.0212230980909493      -0.013377317201708       -0.60719769037662 
                    0.5                     0.5       0.195488721804511                     5.5                     5.5        2.45488718555386     -0.0169481040212725     -0.0138812942114862   -0.000535729486085098       -13.3872850630153                       0                       0     -0.0207077943095047     -0.0126273817300653      -0.575039964544263 
                    0.5                     0.5       0.197994987468672                     5.5                     5.5        2.47994984368931     -0.0166056854584742     -0.0136228668983909   -0.000462546522166521       -13.3866908330547                       0                       0       -0.02019249052806     -0.0118774462584227      -0.542882238711906 
                    0.5                     0.5       0.200501253132832                     5.5                     5.5        2.50501250182477      -0.016263266895676     -0.0133644395852956   -0.000389363558247943        -13.386096603094                       0                       0     -0.0196771867466153       -0.01112751078678       -0.51072451287955 
                    0.5                     0.5       0.203007518796992                     5.5                     5.5        2.53007515996022     -0.0159208483328777     -0.0131060122722004   -0.000316180594329366       -13.3855023731333                       0                       0     -0.0191618829651707     -0.0103775753151373      -0.478566787047193 