VARIABLES = "X"
 "Y"
 "Z"
 "I"
 "J"
 "K"
 "U"
 "V"
 "W"
 "T"
 "fu"
 "fv"
 "X Pressure Gradient"
 "Y Pressure Gradient"
 "Z Pressure Gradient"
ZONE
DT=(DOUBLE,DOUBLE,DOUBLE,DOUBLE,DOUBLE,DOUBLE,DOUBLE,DOUBLE,DOUBLE,DOUBLE,DOUBLE,DOUBLE,DOUBLE,DOUBLE,DOUBLE)
                      0                     0.5                     0.5                       0                     5.5                     5.5                       0                       0                       0       -13.4260368347168                       0                       0        0.41076497733593     -0.0214323382824659    0.000215172731259372 
     0.0025062656641604                     0.5                     0.5      0.0501253125362827                     5.5                     5.5   4.54761917907791E-005  -2.22556419239232E-005     0.00226659150707804       -13.4224411240733                       0                       0        0.40409139790865     -0.0216404540493958    0.000648650843575383 
     0.0050125313283208                     0.5                     0.5       0.100250625072565                     5.5                     5.5   9.09523835815582E-005  -4.45112838478464E-005     0.00453318301415608       -13.4188454134299                       0                       0       0.397417818481369     -0.0218485698163257     0.00108212895589139 
     0.0075187969924812                     0.5                     0.5       0.150375937608848                     5.5                     5.5    0.000136428575372337  -6.67669257717696E-005     0.00679977452123411       -13.4152497027864                       0                       0       0.390744239054089     -0.0220566855832555      0.0015156070682074 
     0.0100250626566416                     0.5                     0.5       0.200501250145131                     5.5                     5.5    0.000181904767163116  -8.90225676956928E-005     0.00906636602831215        -13.411653992143                       0                       0       0.384070659626809     -0.0222648013501854     0.00194908518052341 
      0.012531328320802                     0.5                     0.5       0.250626562681413                     5.5                     5.5    0.000227380958953896   -0.000111278209619616      0.0113329575353902       -13.4080582814995                       0                       0       0.377397080199528     -0.0224729171171153     0.00238256329283942 
     0.0150375939849624                     0.5                     0.5       0.300751875217696                     5.5                     5.5    0.000272857150744675   -0.000133533851543539      0.0135995490424682       -13.4044625708561                       0                       0       0.370723500772248     -0.0226810328840452     0.00281604140515543 
     0.0175438596491228                     0.5                     0.5       0.350877187753979                     5.5                     5.5    0.000318333342535454   -0.000155789493467462      0.0158661405495463       -13.4008668602126                       0                       0       0.364049921344968      -0.022889148650975     0.00324951951747145 
     0.0200501253132832                     0.5                     0.5       0.401002500290261                     5.5                     5.5    0.000363809534326233   -0.000178045135391386      0.0181327320566243       -13.3972711495692                       0                       0       0.357376341917688     -0.0230972644179049     0.00368299762978746 
     0.0225563909774436                     0.5                     0.5       0.451127812826544                     5.5                     5.5    0.000409285726117012   -0.000200300777315309      0.0203993235637023       -13.3936754389257                       0                       0       0.350702762490407     -0.0233053801848348     0.00411647574210347 
      0.025062656641604                     0.5                     0.5       0.501253125362827                     5.5                     5.5    0.000454761917907791   -0.000222556419239232      0.0226659150707804       -13.3900797282823                       0                       0       0.344029183063127     -0.0235134959517646     0.00454995385441948 
     0.0275689223057644                     0.5                     0.5       0.551378437899109                     5.5                     5.5     0.00050023810969857   -0.000244812061163155      0.0249325065778584       -13.3864840176388                       0                       0       0.337355603635847     -0.0237216117186945     0.00498343196673549 
     0.0300751879699248                     0.5                     0.5       0.601503750435392                     5.5                     5.5    0.000545714301489349   -0.000267067703087078      0.0271990980849365       -13.3828883069954                       0                       0       0.330682024208566     -0.0239297274856244      0.0054169100790515 
     0.0325814536340852                     0.5                     0.5       0.651629062971675                     5.5                     5.5    0.000591190493280128   -0.000289323345011002      0.0294656895920145       -13.3792925963519                       0                       0       0.324008444781286     -0.0241378432525543     0.00585038819136751 
     0.0350877192982456                     0.5                     0.5       0.701754375507957                     5.5                     5.5    0.000636666685070907   -0.000311578986934925      0.0317322810990925       -13.3756968857085                       0                       0       0.317334865354006     -0.0243459590194841     0.00628386630368352 
      0.037593984962406                     0.5                     0.5        0.75187968804424                     5.5                     5.5    0.000682142876861687   -0.000333834628858848      0.0339988726061706        -13.372101175065                       0                       0       0.310661285926726      -0.024554074786414     0.00671734441599953 
     0.0401002506265664                     0.5                     0.5       0.802005000580523                     5.5                     5.5    0.000727619068652466   -0.000356090270782771      0.0362654641132486       -13.3685054644216                       0                       0       0.303987706499445     -0.0247621905533439     0.00715082252831554 
     0.0426065162907268                     0.5                     0.5       0.852130313116805                     5.5                     5.5    0.000773095260443245   -0.000378345912706694      0.0385320556203266       -13.3649097537781                       0                       0       0.297314127072165     -0.0249703063202737     0.00758430064063155 
     0.0451127819548872                     0.5                     0.5       0.902255625653088                     5.5                     5.5    0.000818571452234024   -0.000400601554630618      0.0407986471274047       -13.3613140431347                       0                       0       0.290640547644885     -0.0251784220872036     0.00801777875294756 
     0.0476190476190476                     0.5                     0.5        0.95238093818937                     5.5                     5.5    0.000864047644024803   -0.000422857196554541      0.0430652386344827       -13.3577183324912                       0                       0       0.283966968217604     -0.0253865378541335     0.00845125686526357 
      0.050125313283208                     0.5                     0.5        1.00125312531614                     5.5                     5.5    0.000909152597155071    -0.00043640549674196      0.0451861847038924       -13.3543154367942                       0                       0         0.2773541531002     -0.0255744400786696     0.00887994460011549 
     0.0526315789473684                     0.5                     0.5        1.02631578065063                     5.5                     5.5    0.000947203971590897   -0.000284513268528604      0.0445398501386167       -13.3545760480064                       0                       0       0.271895867096035     -0.0253782825940927     0.00921761459351635 
     0.0551378446115288                     0.5                     0.5        1.05137843598511                     5.5                     5.5    0.000985255346026724   -0.000132621040315247      0.0438935155733411       -13.3548366592186                       0                       0       0.266437581091871     -0.0251821251095158     0.00955528458691722 
     0.0576441102756892                     0.5                     0.5         1.0764410913196                     5.5                     5.5     0.00102330672046255   1.92711878981086E-005      0.0432471810080654       -13.3550972704308                       0                       0       0.260979295087706     -0.0249859676249389     0.00989295458031809 
     0.0601503759398496                     0.5                     0.5        1.10150374665408                     5.5                     5.5     0.00106135809489838    0.000171163416111465      0.0426008464427898        -13.355357881643                       0                       0       0.255521009083542     -0.0247898101403621       0.010230624573719 
       0.06265664160401                     0.5                     0.5        1.12656640198857                     5.5                     5.5      0.0010994094693342    0.000323055644324821      0.0419545118775141       -13.3556184928552                       0                       0       0.250062723079377     -0.0245936526557852      0.0105682945671198 
     0.0651629072681704                     0.5                     0.5        1.15162905732305                     5.5                     5.5     0.00113746084377003    0.000474947872538177      0.0413081773122384       -13.3558791040673                       0                       0       0.244604437075213     -0.0243974951712083      0.0109059645605207 
     0.0676691729323308                     0.5                     0.5        1.17669171265754                     5.5                     5.5     0.00117551221820586    0.000626840100751533      0.0406618427469628       -13.3561397152795                       0                       0       0.239146151071049     -0.0242013376866314      0.0112436345539216 
     0.0701754385964912                     0.5                     0.5        1.20175436799202                     5.5                     5.5     0.00121356359264168    0.000778732328964889      0.0400155081816871       -13.3564003264917                       0                       0       0.233687865066884     -0.0240051802020545      0.0115813045473224 
     0.0726817042606516                     0.5                     0.5        1.22681702332651                     5.5                     5.5     0.00125161496707751    0.000930624557178245      0.0393691736164115       -13.3566609377039                       0                       0        0.22822957906272     -0.0238090227174776      0.0119189745407233 
      0.075187969924812                     0.5                     0.5        1.25187967866099                     5.5                     5.5     0.00128966634151334      0.0010825167853916      0.0387228390511358       -13.3569215489161                       0                       0       0.222771293058555     -0.0236128652329007      0.0122566445341242 
     0.0776942355889724                     0.5                     0.5        1.27694233399548                     5.5                     5.5     0.00132771771594916     0.00123440901360496      0.0380765044858601       -13.3571821601283                       0                       0       0.217313007054391     -0.0234167077483238       0.012594314527525 
     0.0802005012531328                     0.5                     0.5        1.30200498932996                     5.5                     5.5     0.00136576909038499     0.00138630124181831      0.0374301699205845       -13.3574427713405                       0                       0       0.211854721050226     -0.0232205502637469      0.0129319845209259 
     0.0827067669172932                     0.5                     0.5        1.32706764466444                     5.5                     5.5     0.00140382046482082     0.00153819347003167      0.0367838353553088       -13.3577033825527                       0                       0       0.206396435046062       -0.02302439277917      0.0132696545143268 
     0.0852130325814536                     0.5                     0.5        1.35213029999893                     5.5                     5.5     0.00144187183925664     0.00169008569824503      0.0361375007900332       -13.3579639937649                       0                       0       0.200938149041897     -0.0228282352945931      0.0136073245077276 
      0.087719298245614                     0.5                     0.5        1.37719295533341                     5.5                     5.5     0.00147992321369247     0.00184197792645838      0.0354911662247575       -13.3582246049771                       0                       0       0.195479863037733     -0.0226320778100162      0.0139449945011285 
     0.0902255639097744                     0.5                     0.5         1.4022556106679                     5.5                     5.5     0.00151797458812829     0.00199387015467174      0.0348448316594818       -13.3584852161893                       0                       0       0.190021577033568     -0.0224359203254393      0.0142826644945294 
     0.0927318295739348                     0.5                     0.5        1.42731826600238                     5.5                     5.5     0.00155602596256412     0.00214576238288509      0.0341984970942062       -13.3587458274015                       0                       0       0.184563291029404     -0.0222397628408624      0.0146203344879302 
     0.0952380952380952                     0.5                     0.5        1.45238092133687                     5.5                     5.5     0.00159407733699995     0.00229765461109845      0.0335521625289305       -13.3590064386137                       0                       0        0.17910500502524     -0.0220436053562856      0.0149580044813311 
     0.0977443609022556                     0.5                     0.5        1.47744357667135                     5.5                     5.5     0.00163212871143577     0.00244954683931181      0.0329058279636549       -13.3592670498259                       0                       0       0.173646719021075     -0.0218474478717087       0.015295674474732 
      0.100250626566416                     0.5                     0.5        1.50250623200584                     5.5                     5.5      0.0016701800858716     0.00260143906752516      0.0322594933983792       -13.3595276610381                       0                       0       0.168188433016911     -0.0216512903871318      0.0156333444681328 
      0.102756892230576                     0.5                     0.5        1.52756888734032                     5.5                     5.5     0.00170823146030743     0.00275333129573852      0.0316131588331035       -13.3597882722503                       0                       0       0.162730147012746     -0.0214551329025549      0.0159710144615337 
      0.105263157894737                     0.5                     0.5        1.55263154267481                     5.5                     5.5     0.00174628283474325     0.00290522352395187      0.0309668242678279       -13.3600488834625                       0                       0       0.157271861008582      -0.021258975417978      0.0163086844549346 
      0.107769423558897                     0.5                     0.5        1.57769419800929                     5.5                     5.5     0.00178433420917908     0.00305711575216523      0.0303204897025522       -13.3603094946747                       0                       0       0.151813575004417     -0.0210628179334011      0.0166463544483354 
      0.110275689223058                     0.5                     0.5        1.60275685334378                     5.5                     5.5     0.00182238558361491     0.00320900798037859      0.0296741551372766       -13.3605701058869                       0                       0       0.146355289000253     -0.0208666604488242      0.0169840244417363 
      0.112781954887218                     0.5                     0.5        1.62781950867826                     5.5                     5.5     0.00186043695805073     0.00336090020859194      0.0290278205720009       -13.3608307170991                       0                       0       0.140897002996088     -0.0206705029642473      0.0173216944351372 
      0.115288220551378                     0.5                     0.5        1.65288216401275                     5.5                     5.5     0.00189848833248656      0.0035127924368053      0.0283814860067252       -13.3610913283113                       0                       0       0.135438716991924     -0.0204743454796704       0.017659364428538 
      0.117794486215539                     0.5                     0.5        1.67794481934723                     5.5                     5.5     0.00193653970692239     0.00366468466501865      0.0277351514414496       -13.3613519395235                       0                       0        0.12998043098776     -0.0202781879950935      0.0179970344219389 
      0.120300751879699                     0.5                     0.5        1.70300747468171                     5.5                     5.5     0.00197459108135821     0.00381657689323201      0.0270888168761739       -13.3616125507357                       0                       0       0.124522144983595     -0.0200820305105166      0.0183347044153398 
       0.12280701754386                     0.5                     0.5         1.7280701300162                     5.5                     5.5     0.00201264245579404     0.00396846912144537      0.0264424823108983       -13.3618731619479                       0                       0       0.119063858979431     -0.0198858730259397      0.0186723744087406 
       0.12531328320802                     0.5                     0.5        1.75313278535068                     5.5                     5.5     0.00205069383022987     0.00412036134965872      0.0257961477456226         -13.36213377316                       0                       0       0.113605572975266     -0.0196897155413628      0.0190100444021415 
       0.12781954887218                     0.5                     0.5        1.77819544068517                     5.5                     5.5     0.00208874520466569     0.00427225357787208      0.0251498131803469       -13.3623943843722                       0                       0       0.108147286971102     -0.0194935580567859      0.0193477143955424 
      0.130325814536341                     0.5                     0.5        1.80325809601965                     5.5                     5.5     0.00212679657910152     0.00442414580608543      0.0245034786150713       -13.3626549955844                       0                       0       0.102689000966937      -0.019297400572209      0.0196853843889432 
      0.132832080200501                     0.5                     0.5        1.82832075135414                     5.5                     5.5     0.00216484795353734     0.00457603803429879      0.0238571440497956       -13.3629156067966                       0                       0      0.0972307149627729     -0.0191012430876322      0.0200230543823441 
      0.135338345864662                     0.5                     0.5        1.85338340668862                     5.5                     5.5     0.00220289932797317     0.00472793026251215        0.02321080948452       -13.3631762180088                       0                       0      0.0917724289586084     -0.0189050856030553       0.020360724375745 
      0.137844611528822                     0.5                     0.5        1.87844606202311                     5.5                     5.5       0.002240950702409      0.0048798224907255      0.0225644749192443        -13.363436829221                       0                       0       0.086314142954444     -0.0187089281184784      0.0206983943691458 
      0.140350877192982                     0.5                     0.5        1.90350871735759                     5.5                     5.5     0.00227900207684482     0.00503171471893886      0.0219181403539686       -13.3636974404332                       0                       0      0.0808558569502795     -0.0185127706339015      0.0210360643625467 
      0.142857142857143                     0.5                     0.5        1.92857137269208                     5.5                     5.5     0.00231705345128065     0.00518360694715222       0.021271805788693       -13.3639580516454                       0                       0      0.0753975709461151     -0.0183166131493246      0.0213737343559476 
      0.145363408521303                     0.5                     0.5        1.95363402802656                     5.5                     5.5     0.00235510482571648     0.00533549917536557      0.0206254712234173       -13.3642186628576                       0                       0      0.0699392849419506     -0.0181204556647477      0.0217114043493484 
      0.147869674185464                     0.5                     0.5        1.97869668336105                     5.5                     5.5      0.0023931562001523     0.00548739140357893      0.0199791366581417       -13.3644792740698                       0                       0      0.0644809989377862     -0.0179242981801708      0.0220490743427493 
      0.150375939849624                     0.5                     0.5        2.00375933911567                     5.5                     5.5     0.00243144629310817      0.0056221485659361      0.0193951432028755         -13.36469813222                       0                       0      0.0595886407407327     -0.0176802560656212      0.0223295438381847 
      0.152882205513784                     0.5                     0.5        2.02882199725113                     5.5                     5.5     0.00247108914957692      0.0056598052105885      0.0191644226271548       -13.3646803852721                       0                       0      0.0579032666028719     -0.0171648626531264      0.0222858711323564 
      0.155388471177945                     0.5                     0.5        2.05388465538658                     5.5                     5.5     0.00251073200604568      0.0056974618552409       0.018933702051434       -13.3646626383241                       0                       0      0.0562178924650111     -0.0166494692406316       0.022242198426528 
      0.157894736842105                     0.5                     0.5        2.07894731352203                     5.5                     5.5     0.00255037486251444      0.0057351184998933      0.0187029814757133       -13.3646448913762                       0                       0      0.0545325183271504     -0.0161340758281368      0.0221985257206997 
      0.160401002506266                     0.5                     0.5        2.10400997165749                     5.5                     5.5      0.0025900177189832      0.0057727751445457      0.0184722608999925       -13.3646271444283                       0                       0      0.0528471441892896      -0.015618682415642      0.0221548530148714 
      0.162907268170426                     0.5                     0.5        2.12907262979294                     5.5                     5.5     0.00262966057545195     0.00581043178919809      0.0182415403242718       -13.3646093974804                       0                       0      0.0511617700514288     -0.0151032890031472      0.0221111803090431 
      0.165413533834586                     0.5                     0.5         2.1541352879284                     5.5                     5.5     0.00266930343192071     0.00584808843385049       0.018010819748551       -13.3645916505325                       0                       0       0.049476395913568     -0.0145878955906525      0.0220675076032148 
      0.167919799498747                     0.5                     0.5        2.17919794606385                     5.5                     5.5     0.00270894628838946     0.00588574507850289      0.0177800991728303       -13.3645739035845                       0                       0      0.0477910217757073     -0.0140725021781577      0.0220238348973865 
      0.170426065162907                     0.5                     0.5        2.20426060419931                     5.5                     5.5     0.00274858914485822     0.00592340172315529      0.0175493785971096       -13.3645561566366                       0                       0      0.0461056476378465     -0.0135571087656629      0.0219801621915582 
      0.172932330827068                     0.5                     0.5        2.22932326233476                     5.5                     5.5     0.00278823200132698     0.00596105836780769      0.0173186580213888       -13.3645384096887                       0                       0      0.0444202734999857     -0.0130417153531681      0.0219364894857299 
      0.175438596491228                     0.5                     0.5        2.25438592047022                     5.5                     5.5     0.00282787485779574     0.00599871501246009      0.0170879374456681       -13.3645206627408                       0                       0      0.0427348993621249     -0.0125263219406733      0.0218928167799016 
      0.177944862155388                     0.5                     0.5        2.27944857860567                     5.5                     5.5     0.00286751771426449     0.00603637165711249      0.0168572168699473       -13.3645029157928                       0                       0      0.0410495252242642     -0.0120109285281785      0.0218491440740733 
      0.180451127819549                     0.5                     0.5        2.30451123674113                     5.5                     5.5     0.00290716057073325     0.00607402830176489      0.0166264962942266       -13.3644851688449                       0                       0      0.0393641510864034     -0.0114955351156837       0.021805471368245 
      0.182957393483709                     0.5                     0.5        2.32957389487658                     5.5                     5.5     0.00294680342720201     0.00611168494641729      0.0163957757185058        -13.364467421897                       0                       0      0.0376787769485426     -0.0109801417031889      0.0217617986624167 
       0.18546365914787                     0.5                     0.5        2.35463655301204                     5.5                     5.5     0.00298644628367076     0.00614934159106969      0.0161650551427851       -13.3644496749491                       0                       0      0.0359934028106818     -0.0104647482906941      0.0217181259565883 
       0.18796992481203                     0.5                     0.5        2.37969921114749                     5.5                     5.5     0.00302608914013952     0.00618699823572209      0.0159343345670643       -13.3644319280011                       0                       0      0.0343080286728211    -0.00994935487819934        0.02167445325076 
       0.19047619047619                     0.5                     0.5        2.40476186928295                     5.5                     5.5     0.00306573199660828     0.00622465488037449      0.0157036139913436       -13.3644141810532                       0                       0      0.0326226545349603    -0.00943396146570456      0.0216307805449317 
      0.192982456140351                     0.5                     0.5         2.4298245274184                     5.5                     5.5     0.00310537485307704     0.00626231152502689      0.0154728934156228       -13.3643964341053                       0                       0      0.0309372803970995    -0.00891856805320976      0.0215871078391034 
      0.195488721804511                     0.5                     0.5        2.45488718555386                     5.5                     5.5     0.00314501770954579     0.00629996816967929      0.0152421728399021       -13.3643786871574                       0                       0      0.0292519062592387    -0.00840317464071498      0.0215434351332751 
      0.197994987468672                     0.5                     0.5        2.47994984368931                     5.5                     5.5     0.00318466056601455     0.00633762481433169      0.0150114522641813       -13.3643609402094                       0                       0       0.027566532121378    -0.00788778122822019      0.0214997624274468 
      0.200501253132832                     0.5                     0.5        2.50501250182477                     5.5                     5.5     0.00322430342248331     0.00637528145898409      0.0147807316884606       -13.3643431932615                       0                       0      0.0258811579835172     -0.0073723878157254      0.0214560897216185 
      0.203007518796992                     0.5                     0.5        2.53007515996022                     5.5                     5.5     0.00326394627895206     0.00641293810363648      0.0145500111127399       -13.3643254463136                       0                       0      0.0241957838456564    -0.00685699440323061      0.0214124170157902 