VARIABLES = "X"
 "Y"
 "Z"
 "I"
 "J"
 "K"
 "U"
 "V"
 "W"
 "T"
 "fu"
 "fv"
 "X Pressure Gradient"
 "Y Pressure Gradient"
 "Z Pressure Gradient"
ZONE
DT=(DOUBLE,DOUBLE,DOUBLE,DOUBLE,DOUBLE,DOUBLE,DOUBLE,DOUBLE,DOUBLE,DOUBLE,DOUBLE,DOUBLE,DOUBLE,DOUBLE,DOUBLE)
                      0                     0.5                     0.5                       0                     5.5                     5.5                       0                       0                       0       -13.4260368347168                       0                       0       0.410764992237091     -0.0214323382824659     0.00021517273853533 
     0.0025062656641604                     0.5                     0.5      0.0501253125362827                     5.5                     5.5   4.54761888731019E-005  -2.22556404650846E-005     0.00226659141371237        -13.422441147975                       0                       0       0.404091412062885     -0.0216404540493958    0.000648650850486631 
     0.0050125313283208                     0.5                     0.5       0.100250625072565                     5.5                     5.5   9.09523777462039E-005  -4.45112809301692E-005     0.00453318282742474       -13.4188454612331                       0                       0        0.39741783188868     -0.0218485698163257     0.00108212896243793 
     0.0075187969924812                     0.5                     0.5       0.150375937608848                     5.5                     5.5    0.000136428566619306  -6.67669213952538E-005      0.0067997742411371       -13.4152497744913                       0                       0       0.390744251714474     -0.0220566855832555     0.00151560707438923 
     0.0100250626566416                     0.5                     0.5       0.200501250145131                     5.5                     5.5    0.000181904755492408  -8.90225618603384E-005     0.00906636565484947       -13.4116540877494                       0                       0       0.384070671540268     -0.0222648013501854     0.00194908518634053 
      0.012531328320802                     0.5                     0.5       0.250626562681413                     5.5                     5.5     0.00022738094436551   -0.000111278202325423      0.0113329570685618       -13.4080584010076                       0                       0       0.377397091366063     -0.0224729171171153     0.00238256329829183 
     0.0150375939849624                     0.5                     0.5       0.300751875217696                     5.5                     5.5    0.000272857133238612   -0.000133533842790508      0.0135995484822742       -13.4044627142658                       0                       0       0.370723511191857     -0.0226810328840452     0.00281604141024314 
     0.0175438596491228                     0.5                     0.5       0.350877187753979                     5.5                     5.5    0.000318333322111713   -0.000155789483255592      0.0158661398959866       -13.4008670275239                       0                       0       0.364049931017651      -0.022889148650975     0.00324951952219444 
     0.0200501253132832                     0.5                     0.5       0.401002500290261                     5.5                     5.5    0.000363809510984815   -0.000178045123720677      0.0181327313096989       -13.3972713407821                       0                       0       0.357376350843446     -0.0230972644179049     0.00368299763414574 
     0.0225563909774436                     0.5                     0.5       0.451127812826544                     5.5                     5.5    0.000409285699857917   -0.000200300764185761      0.0203993227234113       -13.3936756540402                       0                       0        0.35070277066924     -0.0233053801848348     0.00411647574609704 
      0.025062656641604                     0.5                     0.5       0.501253125362827                     5.5                     5.5    0.000454761888731019   -0.000222556404650846      0.0226659141371237       -13.3900799672984                       0                       0       0.344029190495035     -0.0235134959517646     0.00454995385804834 
     0.0275689223057644                     0.5                     0.5       0.551378437899109                     5.5                     5.5    0.000500238077604121   -0.000244812045115931       0.024932505550836       -13.3864842805566                       0                       0       0.337355610320829     -0.0237216117186945     0.00498343196999964 
     0.0300751879699248                     0.5                     0.5       0.601503750435392                     5.5                     5.5    0.000545714266477223   -0.000267067685581015      0.0271990969645484       -13.3828885938147                       0                       0       0.330682030146623     -0.0239297274856244     0.00541691008195094 
     0.0325814536340852                     0.5                     0.5       0.651629062971675                     5.5                     5.5    0.000591190455350325     -0.0002893233260461      0.0294656883782608       -13.3792929070729                       0                       0       0.324008449972418     -0.0241378432525543     0.00585038819390224 
     0.0350877192982456                     0.5                     0.5       0.701754375507957                     5.5                     5.5    0.000636666644223427   -0.000311578966511184      0.0317322797919732       -13.3756972203311                       0                       0       0.317334869798212     -0.0243459590194841     0.00628386630585354 
      0.037593984962406                     0.5                     0.5        0.75187968804424                     5.5                     5.5    0.000682142833096529   -0.000333834606976269      0.0339988712056855       -13.3721015335892                       0                       0       0.310661289624006      -0.024554074786414     0.00671734441780484 
     0.0401002506265664                     0.5                     0.5       0.802005000580522                     5.5                     5.5    0.000727619021969631   -0.000356090247441354      0.0362654626193979       -13.3685058468474                       0                       0       0.303987709449801     -0.0247621905533439     0.00715082252975614 
     0.0426065162907268                     0.5                     0.5       0.852130313116805                     5.5                     5.5    0.000773095210842733   -0.000378345887906438      0.0385320540331103       -13.3649101601055                       0                       0       0.297314129275595     -0.0249703063202737     0.00758430064170744 
     0.0451127819548872                     0.5                     0.5       0.902255625653088                     5.5                     5.5    0.000818571399715835   -0.000400601528371523      0.0407986454468226       -13.3613144733637                       0                       0       0.290640549101389     -0.0251784220872036     0.00801777875365874 
     0.0476190476190476                     0.5                     0.5        0.95238093818937                     5.5                     5.5    0.000864047588588936   -0.000422857168836607       0.043065236860535       -13.3577187866219                       0                       0       0.283966968927184     -0.0253865378541335     0.00845125686561005 
      0.050125313283208                     0.5                     0.5        1.00125312531614                     5.5                     5.5    0.000909152538874468   -0.000436405467820483      0.0451861828435814       -13.3543159130338                       0                       0         0.2773541531002     -0.0255744400786696     0.00887994460011549 
     0.0526315789473684                     0.5                     0.5        1.02631578065063                     5.5                     5.5    0.000947203911851456   -0.000284513243254224      0.0445398483249886       -13.3545765122952                       0                       0       0.271895867096035     -0.0253782825940927     0.00921761459351635 
     0.0551378446115288                     0.5                     0.5        1.05137843598511                     5.5                     5.5    0.000985255284828444   -0.000132621018687963      0.0438935138063957       -13.3548371115566                       0                       0       0.266437581091871     -0.0251821251095158     0.00955528458691722 
     0.0576441102756892                     0.5                     0.5         1.0764410913196                     5.5                     5.5     0.00102330665780543    1.9271205878296E-005      0.0432471792878029        -13.355097710818                       0                       0       0.260979295087706     -0.0249859676249389     0.00989295458031809 
     0.0601503759398496                     0.5                     0.5        1.10150374665408                     5.5                     5.5     0.00106135803078242    0.000171163430444556      0.0426008447692101       -13.3553583100794                       0                       0       0.255521009083542     -0.0247898101403621       0.010230624573719 
       0.06265664160401                     0.5                     0.5        1.12656640198857                     5.5                     5.5     0.00109940940375941    0.000323055655010816      0.0419545102506173       -13.3556189093407                       0                       0       0.250062723079377     -0.0245936526557852      0.0105682945671198 
     0.0651629072681704                     0.5                     0.5        1.15162905732305                     5.5                     5.5      0.0011374607767364    0.000474947879577075      0.0413081757320244       -13.3558795086021                       0                       0       0.244604437075213     -0.0243974951712083      0.0109059645605207 
     0.0676691729323308                     0.5                     0.5        1.17669171265754                     5.5                     5.5     0.00117551214971338    0.000626840104143335      0.0406618412134316       -13.3561401078635                       0                       0       0.239146151071049     -0.0242013376866314      0.0112436345539216 
     0.0701754385964912                     0.5                     0.5        1.20175436799202                     5.5                     5.5     0.00121356352269037    0.000778732328709595      0.0400155066948388       -13.3564007071249                       0                       0       0.233687865066884     -0.0240051802020545      0.0115813045473224 
     0.0726817042606516                     0.5                     0.5        1.22681702332651                     5.5                     5.5     0.00125161489566736    0.000930624553275855      0.0393691721762459       -13.3566613063863                       0                       0        0.22822957906272     -0.0238090227174776      0.0119189745407233 
      0.075187969924812                     0.5                     0.5        1.25187967866099                     5.5                     5.5     0.00128966626864435     0.00108251677784211      0.0387228376576531       -13.3569219056477                       0                       0       0.222771293058555     -0.0236128652329007      0.0122566445341242 
     0.0776942355889724                     0.5                     0.5        1.27694233399548                     5.5                     5.5     0.00132771764162134     0.00123440900240837      0.0380765031390603       -13.3571825049091                       0                       0       0.217313007054391     -0.0234167077483238       0.012594314527525 
     0.0802005012531328                     0.5                     0.5        1.30200498932996                     5.5                     5.5     0.00136576901459832     0.00138630122697463      0.0374301686204675       -13.3574431041705                       0                       0       0.211854721050226     -0.0232205502637469      0.0129319845209259 
     0.0827067669172932                     0.5                     0.5        1.32706764466444                     5.5                     5.5     0.00140382038757531     0.00153819345154089      0.0367838341018746       -13.3577037034319                       0                       0       0.206396435046062       -0.02302439277917      0.0132696545143268 
     0.0852130325814536                     0.5                     0.5        1.35213029999893                     5.5                     5.5      0.0014418717605523     0.00169008567610715      0.0361374995832818       -13.3579643026933                       0                       0       0.200938149041897     -0.0228282352945931      0.0136073245077276 
      0.087719298245614                     0.5                     0.5        1.37719295533341                     5.5                     5.5     0.00147992313352929     0.00184197790067341       0.035491165064689       -13.3582249019547                       0                       0       0.195479863037733     -0.0226320778100162      0.0139449945011285 
     0.0902255639097744                     0.5                     0.5         1.4022556106679                     5.5                     5.5     0.00151797450650628     0.00199387012523967      0.0348448305460961        -13.358485501216                       0                       0       0.190021577033568     -0.0224359203254393      0.0142826644945294 
     0.0927318295739348                     0.5                     0.5        1.42731826600238                     5.5                     5.5     0.00155602587948326     0.00214576234980593      0.0341984960275033       -13.3587461004774                       0                       0       0.184563291029404     -0.0222397628408624      0.0146203344879302 
     0.0952380952380952                     0.5                     0.5        1.45238092133687                     5.5                     5.5     0.00159407725246025     0.00229765457437219      0.0335521615089105       -13.3590066997388                       0                       0        0.17910500502524     -0.0220436053562856      0.0149580044813311 
     0.0977443609022556                     0.5                     0.5        1.47744357667135                     5.5                     5.5     0.00163212862543724     0.00244954679893845      0.0329058269903177       -13.3592672990002                       0                       0       0.173646719021075     -0.0218474478717087       0.015295674474732 
      0.100250626566416                     0.5                     0.5        1.50250623200584                     5.5                     5.5     0.00167017999841423     0.00260143902350471      0.0322594924717248       -13.3595278982616                       0                       0       0.168188433016911     -0.0216512903871318      0.0156333444681328 
      0.102756892230576                     0.5                     0.5        1.52756888734032                     5.5                     5.5     0.00170823137139122     0.00275333124807097       0.031613157953132        -13.359788497523                       0                       0       0.162730147012746     -0.0214551329025549      0.0159710144615337 
      0.105263157894737                     0.5                     0.5        1.55263154267481                     5.5                     5.5      0.0017462827443682     0.00290522347263723      0.0309668234345392       -13.3600490967844                       0                       0       0.157271861008582      -0.021258975417978      0.0163086844549346 
      0.107769423558897                     0.5                     0.5        1.57769419800929                     5.5                     5.5     0.00178433411734519     0.00305711569720349      0.0303204889159464       -13.3603096960458                       0                       0       0.151813575004417     -0.0210628179334011      0.0166463544483354 
      0.110275689223058                     0.5                     0.5        1.60275685334378                     5.5                     5.5     0.00182238549032218     0.00320900792176975      0.0296741543973535       -13.3605702953072                       0                       0       0.146355289000253     -0.0208666604488242      0.0169840244417363 
      0.112781954887218                     0.5                     0.5        1.62781950867826                     5.5                     5.5     0.00186043686329917     0.00336090014633601      0.0290278198787607       -13.3608308945686                       0                       0       0.140897002996088     -0.0206705029642473      0.0173216944351372 
      0.115288220551378                     0.5                     0.5        1.65288216401275                     5.5                     5.5     0.00189848823627615     0.00351279237090227      0.0283814853601679       -13.3610914938299                       0                       0       0.135438716991924     -0.0204743454796704       0.017659364428538 
      0.117794486215539                     0.5                     0.5        1.67794481934723                     5.5                     5.5     0.00193653960925314     0.00366468459546853      0.0277351508415751       -13.3613520930913                       0                       0        0.12998043098776     -0.0202781879950935      0.0179970344219389 
      0.120300751879699                     0.5                     0.5        1.70300747468172                     5.5                     5.5     0.00197459098223013     0.00381657682003479      0.0270888163229822       -13.3616126923527                       0                       0       0.124522144983595     -0.0200820305105166      0.0183347044153398 
       0.12280701754386                     0.5                     0.5         1.7280701300162                     5.5                     5.5     0.00201264235520712     0.00396846904460105      0.0264424818043894       -13.3618732916141                       0                       0       0.119063858979431     -0.0198858730259397      0.0186723744087406 
       0.12531328320802                     0.5                     0.5        1.75313278535068                     5.5                     5.5     0.00205069372818411     0.00412036126916731      0.0257961472857966       -13.3621338908755                       0                       0       0.113605572975266     -0.0196897155413628      0.0190100444021415 
       0.12781954887218                     0.5                     0.5        1.77819544068517                     5.5                     5.5     0.00208874510116109     0.00427225349373357      0.0251498127672037       -13.3623944901369                       0                       0       0.108147286971102     -0.0194935580567859      0.0193477143955424 
      0.130325814536341                     0.5                     0.5        1.80325809601965                     5.5                     5.5     0.00212679647413808     0.00442414571829983      0.0245034782486109       -13.3626550893983                       0                       0       0.102689000966937     -0.0192974005722091      0.0196853843889432 
      0.132832080200501                     0.5                     0.5        1.82832075135414                     5.5                     5.5     0.00216484784711507     0.00457603794286609      0.0238571437300181       -13.3629156886597                       0                       0      0.0972307149627728     -0.0191012430876322      0.0200230543823441 
      0.135338345864662                     0.5                     0.5        1.85338340668862                     5.5                     5.5     0.00220289922009206     0.00472793016743235      0.0232108092114253       -13.3631762879211                       0                       0      0.0917724289586084     -0.0189050856030553       0.020360724375745 
      0.137844611528822                     0.5                     0.5        1.87844606202311                     5.5                     5.5     0.00224095059306905     0.00487982239199861      0.0225644746928324       -13.3634368871825                       0                       0       0.086314142954444     -0.0187089281184784      0.0206983943691458 
      0.140350877192982                     0.5                     0.5        1.90350871735759                     5.5                     5.5     0.00227900196604603     0.00503171461656487      0.0219181401742396       -13.3636974864439                       0                       0      0.0808558569502795     -0.0185127706339015      0.0210360643625467 
      0.142857142857143                     0.5                     0.5        1.92857137269208                     5.5                     5.5     0.00231705333902302     0.00518360684113113      0.0212718056556468       -13.3639580857052                       0                       0      0.0753975709461151     -0.0183166131493246      0.0213737343559476 
      0.145363408521303                     0.5                     0.5        1.95363402802656                     5.5                     5.5     0.00235510471200001     0.00533549906569739       0.020625471137054       -13.3642186849666                       0                       0      0.0699392849419506     -0.0181204556647477      0.0217114043493484 
      0.147869674185464                     0.5                     0.5        1.97869668336105                     5.5                     5.5       0.002393156084977     0.00548739129026365      0.0199791366184611        -13.364479284228                       0                       0      0.0644809989377862     -0.0179242981801708      0.0220490743427493 
      0.150375939849624                     0.5                     0.5        2.00375933911567                     5.5                     5.5     0.00243144617713049     0.00562214844995842      0.0193951432037508         -13.36469813222                       0                       0      0.0595886407409515     -0.0176802560656212      0.0223295438346835 
      0.152882205513784                     0.5                     0.5        2.02882199725112                     5.5                     5.5     0.00247108903651692      0.0056598050975285      0.0191644226338654       -13.3646803852721                       0                       0      0.0579032666045496     -0.0171648626531264      0.0222858711055138 
      0.155388471177945                     0.5                     0.5        2.05388465538658                     5.5                     5.5     0.00251073189590336     0.00569746174509857        0.01893370206398       -13.3646626383241                       0                       0      0.0562178924681477     -0.0166494692406316       0.022242198376344 
      0.157894736842105                     0.5                     0.5        2.07894731352203                     5.5                     5.5     0.00255037475528979     0.00573511839266865      0.0187029814940946       -13.3646448913762                       0                       0      0.0545325183317457     -0.0161340758281368      0.0221985256471743 
      0.160401002506266                     0.5                     0.5        2.10400997165749                     5.5                     5.5     0.00259001761467623     0.00577277504023873      0.0184722609242092       -13.3646271444283                       0                       0      0.0528471441953438      -0.015618682415642      0.0221548529180046 
      0.162907268170426                     0.5                     0.5        2.12907262979294                     5.5                     5.5     0.00262966047406266      0.0058104316878088      0.0182415403543238       -13.3646093974804                       0                       0      0.0511617700589418     -0.0151032890031472      0.0221111801888349 
      0.165413533834586                     0.5                     0.5         2.1541352879284                     5.5                     5.5      0.0026693033334491     0.00584808833537888      0.0180108197844385       -13.3645916505325                       0                       0      0.0494763959225399     -0.0145878955906525      0.0220675074596651 
      0.167919799498747                     0.5                     0.5        2.17919794606385                     5.5                     5.5     0.00270894619283553     0.00588574498294896      0.0177800992145531       -13.3645739035845                       0                       0       0.047791021786138     -0.0140725021781577      0.0220238347304954 
      0.170426065162907                     0.5                     0.5        2.20426060419931                     5.5                     5.5     0.00274858905222196     0.00592340163051903      0.0175493786446677       -13.3645561566366                       0                       0       0.046105647649736     -0.0135571087656629      0.0219801620013257 
      0.172932330827068                     0.5                     0.5        2.22932326233476                     5.5                     5.5      0.0027882319116084     0.00596105827808911      0.0173186580747823       -13.3645384096887                       0                       0      0.0444202735133341     -0.0130417153531681       0.021936489272156 
      0.175438596491228                     0.5                     0.5        2.25438592047022                     5.5                     5.5     0.00282787477099483     0.00599871492565919      0.0170879375048969       -13.3645206627408                       0                       0      0.0427348993769321     -0.0125263219406733      0.0218928165429862 
      0.177944862155388                     0.5                     0.5        2.27944857860567                     5.5                     5.5     0.00286751763038127     0.00603637157322927      0.0168572169350115       -13.3645029157928                       0                       0      0.0410495252405302     -0.0120109285281785      0.0218491438138165 
      0.180451127819549                     0.5                     0.5        2.30451123674113                     5.5                     5.5      0.0029071604897677     0.00607402822079934      0.0166264963651261       -13.3644851688449                       0                       0      0.0393641511041283     -0.0114955351156837      0.0218054710846468 
      0.182957393483709                     0.5                     0.5        2.32957389487658                     5.5                     5.5     0.00294680334915414     0.00611168486836942      0.0163957757952407        -13.364467421897                       0                       0      0.0376787769677263     -0.0109801417031889       0.021761798355477 
       0.18546365914787                     0.5                     0.5        2.35463655301204                     5.5                     5.5     0.00298644620854057      0.0061493415159395      0.0161650552253553       -13.3644496749491                       0                       0      0.0359934028313244     -0.0104647482906941      0.0217181256263073 
       0.18796992481203                     0.5                     0.5        2.37969921114749                     5.5                     5.5       0.003026089067927     0.00618699816350957      0.0159343346554699       -13.3644319280011                       0                       0      0.0343080286949225    -0.00994935487819934      0.0216744528971376 
       0.19047619047619                     0.5                     0.5        2.40476186928295                     5.5                     5.5     0.00306573192731344     0.00622465481107965      0.0157036140855846       -13.3644141810532                       0                       0      0.0326226545585205    -0.00943396146570456      0.0216307801679679 
      0.192982456140351                     0.5                     0.5         2.4298245274184                     5.5                     5.5     0.00310537478669987     0.00626231145864973      0.0154728935156992       -13.3643964341053                       0                       0      0.0309372804221186    -0.00891856805320976      0.0215871074387981 
      0.195488721804511                     0.5                     0.5        2.45488718555386                     5.5                     5.5     0.00314501764608631      0.0062999681062198      0.0152421729458138       -13.3643786871574                       0                       0      0.0292519062857166    -0.00840317464071498      0.0215434347096284 
      0.197994987468672                     0.5                     0.5        2.47994984368931                     5.5                     5.5     0.00318466050547274     0.00633762475378988      0.0150114523759284       -13.3643609402094                       0                       0      0.0275665321493147    -0.00788778122822019      0.0214997619804587 
      0.200501253132832                     0.5                     0.5        2.50501250182477                     5.5                     5.5     0.00322430336485918     0.00637528140135996       0.014780731806043       -13.3643431932615                       0                       0      0.0258811580129128     -0.0073723878157254      0.0214560892512889 
      0.203007518796992                     0.5                     0.5        2.53007515996022                     5.5                     5.5     0.00326394622424561     0.00641293804893003      0.0145500112361576       -13.3643254463136                       0                       0      0.0241957838765108    -0.00685699440323061      0.0214124165221192 