VARIABLES = "X"
 "Y"
 "Z"
 "I"
 "J"
 "K"
 "U"
 "V"
 "W"
 "T"
 "fu"
 "fv"
 "X Pressure Gradient"
 "Y Pressure Gradient"
 "Z Pressure Gradient"
ZONE
DT=(DOUBLE,DOUBLE,DOUBLE,DOUBLE,DOUBLE,DOUBLE,DOUBLE,DOUBLE,DOUBLE,DOUBLE,DOUBLE,DOUBLE,DOUBLE,DOUBLE,DOUBLE)
                      0                     0.5                     0.5                       0        10.5000002980233                    10.5                       0                       0                       0                       1                       0                       0       -4.52754092216961  -3.83685203509779E-006       0.115158312022664 
     0.0025062656641604                     0.5                     0.5       0.100250625072565        10.5000002980233                    10.5   2.60651658722117E-006  -5.01253181083167E-008    0.000110977435030585       0.987607346028637                       0                       0       -4.49874598144943  -4.46427809220527E-006       0.131326147116532 
     0.0050125313283208                     0.5                     0.5       0.200501250145131        10.5000002980233                    10.5   5.21303317444235E-006  -1.00250636216633E-007     0.00022195487006117       0.975214692057275                       0                       0       -4.46995104072924  -5.09170414931276E-006         0.1474939822104 
     0.0075187969924812                     0.5                     0.5       0.300751875217696        10.5000002980233                    10.5   7.81954976166352E-006   -1.5037595432495E-007    0.000332932305091754       0.962822038085912                       0                       0       -4.44115610000906   -5.7191302064203E-006       0.163661817304267 
     0.0100250626566416                     0.5                     0.5       0.401002500290261        10.5000002980233                    10.5   1.04260663488847E-005  -2.00501272433267E-007    0.000443909740122339       0.950429384114549                       0                       0       -4.41236115928888  -6.34655626352782E-006       0.179829652398135 
      0.012531328320802                     0.5                     0.5       0.501253125362827        10.5000002980233                    10.5   1.30325829361059E-005  -2.50624802401741E-007    0.000554887175152924       0.938036730143027                       0                       0       -4.38356621856813  -6.97358434991285E-006       0.195997487491448 
     0.0150375939849624                     0.5                     0.5       0.601503750435392        10.5000002980233                    10.5    1.5639099523327E-005  -3.00750120510057E-007    0.000665864610183508       0.925644076171664                       0                       0       -4.35477127784795  -7.60101040702038E-006       0.212165322585316 
     0.0175438596491228                     0.5                     0.5       0.701754375507957        10.5000002980233                    10.5   1.82456161105482E-005  -3.50875438618374E-007    0.000776842045214093       0.913251422200302                       0                       0       -4.32597633712777  -8.22843646412786E-006       0.228333157679184 
     0.0200501253132832                     0.5                     0.5       0.802005000580523        10.5000002980233                    10.5   2.08521326977694E-005  -4.01000756726691E-007    0.000887819480244678       0.900858768228939                       0                       0       -4.29718139640758  -8.85586252123552E-006       0.244500992773052 
     0.0225563909774436                     0.5                     0.5       0.902255625653088        10.5000002980233                    10.5   2.34586492849906E-005  -4.51126074835008E-007    0.000998796915275263       0.888466114257576                       0                       0        -4.2683864556874   -9.4832885783429E-006        0.26066882786692 
      0.025062656641604                     0.5                     0.5        1.00125312531614        10.5000002980233                    10.5   2.60231861779966E-005  -4.99371704713475E-007     0.00110735080606003       0.876111683974469                       0                       0       -4.23918923729365   -1.0110201126752E-005       0.276808358639902 
     0.0275689223057644                     0.5                     0.5        1.05137843598511        10.5000002980233                    10.5   2.69505050128351E-005  -4.74309046592974E-007     0.00112138589488104       0.865247986623814                       0                       0       -4.19430309395925  -1.07170867137962E-005        0.29184401416689 
     0.0300751879699248                     0.5                     0.5        1.10150374665408        10.5000002980233                    10.5   2.78778238476737E-005  -4.49246388472472E-007     0.00113542098370206        0.85438428927316                       0                       0       -4.14941695062485  -1.13239723008407E-005       0.306879669693879 
     0.0325814536340852                     0.5                     0.5        1.15162905732305        10.5000002980233                    10.5   2.88051426825122E-005  -4.24183730351971E-007     0.00114945607252307       0.843520591922506                       0                       0       -4.10453080729046  -1.19308578878851E-005       0.321915325220868 
     0.0350877192982456                     0.5                     0.5        1.20175436799202        10.5000002980233                    10.5   2.97324615173508E-005  -3.99121072231469E-007     0.00116349116134408       0.832656894571851                       0                       0       -4.05964466395606  -1.25377434749295E-005       0.336950980747857 
      0.037593984962406                     0.5                     0.5        1.25187967866099        10.5000002980233                    10.5   3.06597803521893E-005  -3.74058414110968E-007      0.0011775262501651       0.821793197221197                       0                       0       -4.01475852062166  -1.31446290619738E-005       0.351986636274846 
     0.0401002506265664                     0.5                     0.5        1.30200498932996        10.5000002980233                    10.5   3.15870991870278E-005  -3.48995755990466E-007     0.00119156133898611       0.810929499870543                       0                       0       -3.96987237728727  -1.37515146490182E-005       0.367022291801835 
     0.0426065162907268                     0.5                     0.5        1.35213029999893        10.5000002980233                    10.5   3.25144180218664E-005  -3.23933097869964E-007     0.00120559642780712       0.800065802519888                       0                       0       -3.92498623395287  -1.43584002360626E-005       0.382057947328824 
     0.0451127819548872                     0.5                     0.5         1.4022556106679        10.5000002980233                    10.5   3.34417368567049E-005  -2.98870439749463E-007     0.00121963151662813       0.789202105169234                       0                       0       -3.88010009061847   -1.4965285823107E-005       0.397093602855813 
     0.0476190476190476                     0.5                     0.5        1.45238092133687        10.5000002980233                    10.5   3.43690556915435E-005  -2.73807781628961E-007     0.00123366660544915        0.77833840781858                       0                       0       -3.83521394728408  -1.55721714101515E-005       0.412129258382802 
      0.050125313283208                     0.5                     0.5        1.50250623200584        10.5000002980233                    10.5    3.5296374526382E-005   -2.4874273932189E-007     0.00124770169427016       0.767474710467783                       0                       0       -3.79032780394847   -1.6178281750489E-005       0.427164913908574 
     0.0526315789473684                     0.5                     0.5        1.55263154267481        10.5000002980233                    10.5   3.62236933612206E-005  -2.23680081201388E-007     0.00126173678309117       0.756611013117129                       0                       0       -3.74544166061407  -1.67851673375334E-005       0.442200569435563 
     0.0551378446115288                     0.5                     0.5        1.60275685334378        10.5000002980233                    10.5   3.71510121960591E-005  -1.98617423080887E-007     0.00127577187191219       0.745747315766474                       0                       0       -3.70055551727968  -1.73920529245778E-005       0.457236224962552 
     0.0576441102756892                     0.5                     0.5        1.65288216401275        10.5000002980233                    10.5   3.80783310308977E-005  -1.73554764960386E-007      0.0012898069607332        0.73488361841582                       0                       0       -3.65566937394528  -1.79989385116223E-005       0.472271880489541 
     0.0601503759398496                     0.5                     0.5        1.70300747468172        10.5000002980233                    10.5   3.90056498657362E-005  -1.48492106839884E-007     0.00130384204955421       0.724019921065166                       0                       0       -3.61078323061088  -1.86058240986666E-005       0.487307536016529 
       0.06265664160401                     0.5                     0.5        1.75313278535068        10.5000002980233                    10.5   3.99329687005747E-005  -1.23429448719382E-007     0.00131787713837523       0.713156223714511                       0                       0       -3.56589708727649  -1.92127096857111E-005       0.502343191543518 
     0.0651629072681704                     0.5                     0.5        1.80325809601965        10.5000002980233                    10.5   4.08602875354133E-005  -9.83667905988805E-008     0.00133191222719624       0.702292526363857                       0                       0       -3.52101094394209  -1.98195952727554E-005       0.517378847070507 
     0.0676691729323308                     0.5                     0.5        1.85338340668862        10.5000002980233                    10.5   4.17876063702518E-005  -7.33041324783793E-008     0.00134594731601725       0.691428829013203                       0                       0       -3.47612480060769  -2.04264808597999E-005       0.532414502597496 
     0.0701754385964912                     0.5                     0.5        1.90350871735759        10.5000002980233                    10.5   4.27149252050904E-005  -4.82414743578769E-008     0.00135998240483827       0.680565131662549                       0                       0        -3.4312386572733   -2.1033366446844E-005       0.547450158124485 
     0.0726817042606516                     0.5                     0.5        1.95363402802656        10.5000002980233                    10.5   4.36422440399289E-005  -2.31788162373752E-008     0.00137401749365928       0.669701434311894                       0                       0        -3.3863525139389  -2.16402520338886E-005       0.562485813651474 
      0.075187969924812                     0.5                     0.5        2.00375933911567        10.5000002980233                    10.5   4.43515212066887E-005   4.17232641250386E-012     0.00138539660942048       0.659138627904287                       0                       0       -3.33992136246821  -2.22243798842011E-005       0.577050317546982 
     0.0776942355889724                     0.5                     0.5        2.05388465538658        10.5000002980233                    10.5    4.2371571706216E-005   4.17232641250386E-012     0.00136401816263482        0.65228687340296                       0                       0       -3.27443478403341  -2.25278241704741E-005       0.585803851718895 
     0.0802005012531328                     0.5                     0.5        2.10400997165749        10.5000002980233                    10.5   4.03916222057433E-005   4.17232641250386E-012     0.00134263971584917       0.645435118901632                       0                       0       -3.20894820559861  -2.28312684567478E-005       0.594557385890808 
     0.0827067669172932                     0.5                     0.5         2.1541352879284        10.5000002980233                    10.5   3.84116727052706E-005   4.17232641250386E-012     0.00132126126906351       0.638583364400305                       0                       0       -3.14346162716381  -2.31347127430208E-005       0.603310920062721 
     0.0852130325814536                     0.5                     0.5        2.20426060419931        10.5000002980233                    10.5   3.64317232047979E-005   4.17232641250386E-012     0.00129988282227786       0.631731609898977                       0                       0         -3.077975048729  -2.34381570292939E-005       0.612064454234634 
      0.087719298245614                     0.5                     0.5        2.25438592047022        10.5000002980233                    10.5   3.44517737043252E-005   4.17232641208035E-012     0.00127850437549221        0.62487985539765                       0                       0        -3.0124884702942  -2.37416013155673E-005       0.620817988406547 
     0.0902255639097744                     0.5                     0.5        2.30451123674113        10.5000002980233                    10.5   3.24718242038525E-005   4.17232641250386E-012     0.00125712592870655       0.618028100896322                       0                       0        -2.9470018918594  -2.40450456018407E-005        0.62957152257846 
     0.0927318295739348                     0.5                     0.5        2.35463655301204        10.5000002980233                    10.5   3.04918747033798E-005   4.17232641250386E-012      0.0012357474819209       0.611176346394994                       0                       0        -2.8815153134246   -2.4348489888114E-005       0.638325056750373 
     0.0952380952380952                     0.5                     0.5        2.40476186928295        10.5000002980233                    10.5   2.85119252029071E-005   4.17232641250386E-012     0.00121436903513525       0.604324591893667                       0                       0        -2.8160287349898  -2.46519341743873E-005       0.647078590922285 
     0.0977443609022556                     0.5                     0.5        2.45488718555386        10.5000002980233                    10.5   2.65319757024344E-005   4.17232641250386E-012     0.00119299058834959       0.597472837392339                       0                       0       -2.75054215655499  -2.49553784606606E-005       0.655832125094199 
      0.100250626566416                     0.5                     0.5        2.50501250182477        10.5000002980233                    10.5   2.45520262019617E-005    3.8743032524833E-012     0.00117161214156394        0.59062108289103                       0                       0       -2.68505557811799  -2.52584515215977E-005       0.664585659265703 
      0.102756892230576                     0.5                     0.5        2.55513781809568        10.5000002980233                    10.5   2.25720767014889E-005    3.8743032524833E-012     0.00115023369477828       0.583769328389702                       0                       0       -2.61956899968319  -2.55618958078709E-005       0.673339193437616 
      0.105263157894737                     0.5                     0.5        2.60526313436659        10.5000002980233                    10.5   2.05921272010162E-005    3.8743032524833E-012     0.00112885524799263       0.576917573888375                       0                       0       -2.55408242124839  -2.58653400941441E-005       0.682092727609529 
      0.107769423558897                     0.5                     0.5         2.6553884506375        10.5000002980233                    10.5   1.86121777005435E-005   3.87430325205979E-012     0.00110747680120698       0.570065819387047                       0                       0       -2.48859584281358  -2.61687843804176E-005       0.690846261781442 
      0.110275689223058                     0.5                     0.5        2.70551376690841        10.5000002980233                    10.5   1.66322282000708E-005   3.87430325269506E-012     0.00108609835442132       0.563214064885719                       0                       0       -2.42310926437878  -2.64722286666906E-005       0.699599795953355 
      0.112781954887218                     0.5                     0.5        2.75563908317931        10.5000002980233                    10.5   1.46522786995981E-005   3.87430325216567E-012     0.00106471990763567       0.556362310384392                       0                       0       -2.35762268594398  -2.67756729529641E-005       0.708353330125267 
      0.115288220551378                     0.5                     0.5        2.80576439945022        10.5000002980233                    10.5   1.26723291991254E-005   3.87430325258918E-012     0.00104334146085002       0.549510555883064                       0                       0       -2.29213610750918  -2.70791172392374E-005        0.71710686429718 
      0.117794486215539                     0.5                     0.5        2.85588971572113        10.5000002980233                    10.5   1.06923796986527E-005   3.87430325205979E-012     0.00102196301406436       0.542658801381737                       0                       0       -2.22664952907438  -2.73825615255107E-005       0.725860398469093 
      0.120300751879699                     0.5                     0.5        2.90601503199204        10.5000002980233                    10.5   8.71243019818001E-006   3.87430325280094E-012     0.00100058456727871       0.535807046880409                       0                       0       -2.16116295063957  -2.76860058117836E-005       0.734613932641006 
       0.12280701754386                     0.5                     0.5        2.95614034826295        10.5000002980233                    10.5    6.7324806977073E-006    3.8743032518745E-012    0.000979206120493054       0.528955292379082                       0                       0       -2.09567637220477  -2.79894500980572E-005       0.743367466812919 
       0.12531328320802                     0.5                     0.5        3.00626566453386        10.5000002980233                    10.5   4.61468653652285E-006  -1.56254093585428E-009    0.000957689829496877       0.522591924398649                       0                       0        -2.0310961950468  -2.82484275217223E-005       0.751257506278419 
       0.12781954887218                     0.5                     0.5        3.05639098080477        10.5000002980233                    10.5   1.53197975035618E-006  -1.40938628487075E-008    0.000935208629027037       0.519647262064483                       0                       0       -1.97286082682669  -2.81961369071324E-005       0.753103082799028 
      0.130325814536341                     0.5                     0.5        3.10651629707568        10.5000002980233                    10.5  -1.55072703581049E-006  -2.66251847615603E-008    0.000912727428557197       0.516702599730317                       0                       0       -1.91462545860657  -2.81438462925426E-005       0.754948659319638 
      0.132832080200501                     0.5                     0.5        3.15664161334659        10.5000002980233                    10.5  -4.63343382197716E-006   -3.9156506674414E-008    0.000890246228087358       0.513757937396151                       0                       0       -1.85639009038645  -2.80915556779525E-005       0.756794235840247 
      0.135338345864662                     0.5                     0.5         3.2067669296175        10.5000002980233                    10.5  -7.71614060814383E-006  -5.16878285872659E-008    0.000867765027617518       0.510813275061985                       0                       0       -1.79815472216633  -2.80392650633624E-005       0.758639812360856 
      0.137844611528822                     0.5                     0.5        3.25689224588841        10.5000002980233                    10.5  -1.07988473943105E-005  -6.42191505001196E-008    0.000845283827147679       0.507868612727819                       0                       0       -1.73991935394622  -2.79869744487726E-005       0.760485388881465 
      0.140350877192982                     0.5                     0.5        3.30701756215932        10.5000002980233                    10.5  -1.38815541804772E-005  -7.67504724129719E-008    0.000822802626677839       0.504923950393653                       0                       0        -1.6816839857261  -2.79346838341825E-005       0.762330965402074 
      0.142857142857143                     0.5                     0.5        3.35714287843023        10.5000002980233                    10.5  -1.69642609666438E-005  -8.92817943258256E-008    0.000800321426207999       0.501979288059487                       0                       0       -1.62344861750598  -2.78823932195924E-005       0.764176541922684 
      0.145363408521303                     0.5                     0.5        3.40726819470114        10.5000002980233                    10.5  -2.00469677528105E-005  -1.01813116238678E-007    0.000777840225738159        0.49903462572532                       0                       0       -1.56521324928586  -2.78301026050024E-005       0.766022118443293 
      0.147869674185464                     0.5                     0.5        3.45739351097205        10.5000002980233                    10.5  -2.31296745389772E-005  -1.14344438151531E-007     0.00075535902526832       0.496089963391154                       0                       0       -1.50697788106574  -2.77778119904125E-005       0.767867694963902 
      0.150375939849624                     0.5                     0.5        3.50751882724296        10.5000002980233                    10.5  -2.62123813251439E-005   -1.2687739919285E-007     0.00073287782479848        0.49314530105697                       0                       0        -1.4487425128449  -2.77258993180104E-005       0.769713271485453 
      0.152882205513784                     0.5                     0.5        3.55764414351387        10.5000002980233                    10.5  -2.92950881113105E-005  -1.39408721105703E-007     0.00071039662432864       0.490200638722804                       0                       0       -1.39050714462478  -2.76736087034203E-005       0.771558848006062 
      0.155388471177945                     0.5                     0.5        3.60776945978478        10.5000002980233                    10.5  -3.23777948974772E-005  -1.51940043018556E-007    0.000687915423858801       0.487255976388638                       0                       0       -1.33227177640466  -2.76213180888305E-005       0.773404424526671 
      0.157894736842105                     0.5                     0.5        3.65789477605569        10.5000002980233                    10.5  -3.54605016836439E-005  -1.64471364931409E-007    0.000665434223388961       0.484311314054472                       0                       0       -1.27403640818455  -2.75690274742403E-005       0.775250001047281 
      0.160401002506266                     0.5                     0.5         3.7080200923266        10.5000002980233                    10.5  -3.85432084698105E-005  -1.77002686844262E-007    0.000642953022919121       0.481366651720306                       0                       0       -1.21580103996443  -2.75167368596501E-005        0.77709557756789 
      0.162907268170426                     0.5                     0.5        3.75814540859751        10.5000002980233                    10.5  -4.16259152559772E-005  -1.89534008757115E-007    0.000620471822449282        0.47842198938614                       0                       0       -1.15756567174431  -2.74644462450601E-005       0.778941154088499 
      0.165413533834586                     0.5                     0.5        3.80827072486842        10.5000002980233                    10.5  -4.47086220421439E-005  -2.02065330669968E-007    0.000597990621979442       0.475477327051974                       0                       0       -1.09933030352419  -2.74121556304701E-005       0.780786730609108 
      0.167919799498747                     0.5                     0.5        3.85839604113933        10.5000002980233                    10.5  -4.77913288283105E-005  -2.14596652582821E-007    0.000575509421509602       0.472532664717808                       0                       0       -1.04109493530407    -2.735986501588E-005       0.782632307129718 
      0.170426065162907                     0.5                     0.5        3.90852135741024        10.5000002980233                    10.5  -5.08740356144772E-005  -2.27127974495674E-007    0.000553028221039763       0.469588002383642                       0                       0      -0.982859567083957  -2.73075744012904E-005       0.784477883650327 
      0.172932330827068                     0.5                     0.5        3.95864667368115        10.5000002980233                    10.5  -5.39567424006439E-005  -2.39659296408527E-007    0.000530547020569923       0.466643340049475                       0                       0      -0.924624198863839  -2.72552837867004E-005       0.786323460170936 
      0.175438596491228                     0.5                     0.5        4.00877198995206        10.5000002980233                    10.5   -5.6872781373156E-005  -2.49997622085477E-007    0.000509421091506605       0.464096329822255                       0                       0      -0.870623494924968  -2.72140215570732E-005        0.78791119594926 
      0.177944862155388                     0.5                     0.5        4.05889730622297        10.5000002980233                    10.5  -5.90031071240869E-005  -2.49997622085477E-007    0.000494684246451687       0.463423949802067                       0                       0      -0.836586043888833  -2.72247498569194E-005       0.788283406811083 
      0.180451127819549                     0.5                     0.5        4.10902262249388        10.5000002980233                    10.5  -6.11334328750179E-005  -2.49997622085477E-007    0.000479947401396769       0.462751569781879                       0                       0      -0.802548592852697  -2.72354781567657E-005       0.788655617672905 
      0.182957393483709                     0.5                     0.5        4.15914793876479        10.5000002980233                    10.5  -6.32637586259489E-005  -2.49997622085477E-007     0.00046521055634185       0.462079189761691                       0                       0      -0.768511141816562  -2.72462064566123E-005       0.789027828534728 
       0.18546365914787                     0.5                     0.5         4.2092732550357        10.5000002980233                    10.5  -6.53940843768799E-005  -2.49997622085477E-007    0.000450473711286932       0.461406809741503                       0                       0      -0.734473690780427  -2.72569347564588E-005       0.789400039396551 
       0.18796992481203                     0.5                     0.5        4.25939857130661        10.5000002980233                    10.5  -6.75244101278108E-005  -2.49997622085477E-007    0.000435736866232014       0.460734429721314                       0                       0      -0.700436239744292  -2.72676630563052E-005       0.789772250258374 
       0.19047619047619                     0.5                     0.5        4.30952388757752        10.5000002980233                    10.5  -6.96547358787418E-005  -2.49997622085477E-007    0.000421000021177096       0.460062049701126                       0                       0      -0.666398788708157  -2.72783913561516E-005       0.790144461120196 
      0.192982456140351                     0.5                     0.5        4.35964920384843        10.5000002980233                    10.5  -7.17850616296728E-005  -2.49997622085477E-007    0.000406263176122177       0.459389669680938                       0                       0      -0.632361337672021  -2.72891196559982E-005       0.790516671982019 
      0.195488721804511                     0.5                     0.5        4.40977452011933        10.5000002980233                    10.5  -7.39153873806037E-005  -2.49997622085477E-007    0.000391526331067259        0.45871728966075                       0                       0      -0.598323886635886  -2.72998479558445E-005       0.790888882843842 
      0.197994987468672                     0.5                     0.5        4.45989983639024        10.5000002980233                    10.5  -7.60457131315347E-005  -2.49997622085477E-007    0.000376789486012341       0.458044909640562                       0                       0      -0.564286435599751   -2.7310576255691E-005       0.791261093705665 
      0.200501253132832                     0.5                     0.5        4.51002515266115        10.5000002980233                    10.5  -7.81760388824657E-005  -2.49999410225523E-007    0.000362052640957422       0.457372529620382                       0                       0      -0.530248984564389  -2.73221366846799E-005       0.791633304568766 
      0.203007518796992                     0.5                     0.5        4.56015046893206        10.5000002980233                    10.5  -8.03063646333967E-005  -2.49999410225523E-007    0.000347315795902504       0.456700149600194                       0                       0      -0.496211533528253  -2.73328649845264E-005       0.792005515430589 