VARIABLES = "X"
 "Y"
 "Z"
 "I"
 "J"
 "K"
 "U"
 "V"
 "W"
 "T"
 "fu"
 "fv"
 "X Pressure Gradient"
 "Y Pressure Gradient"
 "Z Pressure Gradient"
ZONE
DT=(DOUBLE,DOUBLE,DOUBLE,DOUBLE,DOUBLE,DOUBLE,DOUBLE,DOUBLE,DOUBLE,DOUBLE,DOUBLE,DOUBLE,DOUBLE,DOUBLE,DOUBLE)
                      0                     0.5                     0.5                       0                    10.5        10.5000002980233                       0                       0                       0                       1                       0                       0       -4.52754079386061  -3.83685196590412E-006       0.115158313099798 
     0.0025062656641604                     0.5                     0.5       0.100250625072565                    10.5        10.5000002980233   2.60651622251153E-006  -5.01251329041979E-008    0.000110977440865939       0.987607343040936                       0                       0       -4.49874587704204  -4.46423814429089E-006       0.131326148193666 
     0.0050125313283208                     0.5                     0.5       0.200501250145131                    10.5        10.5000002980233   5.21303244502305E-006  -1.00250265808396E-007    0.000221954881731878       0.975214686081872                       0                       0       -4.46995096022347  -5.09162432267767E-006       0.147493983287534 
     0.0075187969924812                     0.5                     0.5       0.300751875217696                    10.5        10.5000002980233   7.81954866753457E-006  -1.50375398712594E-007    0.000332932322597818       0.962822029122808                       0                       0        -4.4411560434049  -5.71901050106445E-006       0.163661818381402 
     0.0100250626566416                     0.5                     0.5       0.401002500290261                    10.5        10.5000002980233   1.04260648900461E-005  -2.00500531616791E-007    0.000443909763463757       0.950429372163744                       0                       0       -4.41236112658633  -6.34639667945122E-006        0.17982965347527 
      0.012531328320802                     0.5                     0.5       0.501253125362827                    10.5        10.5000002980233   1.30325852848846E-005  -2.50625664521209E-007    0.000554887187044315       0.938036718564446                       0                       0       -4.38356622288139  -6.97378341292972E-006       0.195997492561492 
     0.0150375939849624                     0.5                     0.5       0.601503750435392                    10.5        10.5000002980233   1.56391015073961E-005  -3.00750797425407E-007    0.000665864627910254       0.925644061605382                       0                       0       -4.35477130606282  -7.60116959131649E-006        0.21216532765536 
     0.0175438596491228                     0.5                     0.5       0.701754375507957                    10.5        10.5000002980233   1.82456177299076E-005  -3.50875930329605E-007    0.000776842068776193       0.913251404646318                       0                       0       -4.32597638924425  -8.22855576970327E-006       0.228333162749228 
     0.0200501253132832                     0.5                     0.5       0.802005000580522                    10.5        10.5000002980233   2.08521339524191E-005  -4.01001063233803E-007    0.000887819509642133       0.900858747687254                       0                       0       -4.29718147242568  -8.85594194809005E-006       0.244500997843096 
     0.0225563909774436                     0.5                     0.5       0.902255625653088                    10.5        10.5000002980233   2.34586501749307E-005  -4.51126196138001E-007    0.000998796950508072        0.88846609072819                       0                       0       -4.26838655560711  -9.48332812647682E-006       0.260668832936964 
      0.025062656641604                     0.5                     0.5        1.00125312531614                    10.5        10.5000002980233   2.60231866986682E-005  -4.99371642529015E-007     0.00110735084690937       0.876111657532073                       0                       0       -4.23918936036805  -1.01102008220936E-005         0.2768083636726 
     0.0275689223057644                     0.5                     0.5        1.05137843598511                    10.5        10.5000002980233   2.69505049864423E-005  -4.74308867871399E-007      0.0011213859328127       0.865247960181419                       0                       0       -4.19430321105825  -1.07170475675618E-005       0.291844017705738 
     0.0300751879699248                     0.5                     0.5        1.10150374665408                    10.5        10.5000002980233   2.78778232742164E-005  -4.49246093213784E-007     0.00113542101871604       0.854384262830765                       0                       0       -4.14941706174845  -1.13238943130299E-005       0.306879671738876 
     0.0325814536340852                     0.5                     0.5        1.15162905732305                    10.5        10.5000002980233   2.88051415619905E-005  -4.24183318556169E-007     0.00114945610461938        0.84352056548011                       0                       0       -4.10453091243865  -1.19307410584981E-005       0.321915325772014 
     0.0350877192982456                     0.5                     0.5        1.20175436799202                    10.5        10.5000002980233   2.97324598497646E-005  -3.99120543898553E-007     0.00116349119052271       0.832656868129456                       0                       0       -4.05964476312885  -1.25375878039663E-005       0.336950979805152 
      0.037593984962406                     0.5                     0.5        1.25187967866099                    10.5        10.5000002980233   3.06597781375386E-005  -3.74057769240938E-007     0.00117752627642605       0.821793170778802                       0                       0       -4.01475861381905  -1.31444345494345E-005       0.351986633838291 
     0.0401002506265664                     0.5                     0.5        1.30200498932996                    10.5        10.5000002980233   3.15870964253127E-005  -3.48994994583322E-007     0.00119156136232938       0.810929473428147                       0                       0       -3.96987246450925  -1.37512812949026E-005       0.367022287871429 
     0.0426065162907268                     0.5                     0.5        1.35213029999893                    10.5        10.5000002980233   3.25144147130868E-005  -3.23932219925707E-007     0.00120559644823272       0.800065776077493                       0                       0       -3.92498631519945  -1.43581280403708E-005       0.382057941904567 
     0.0451127819548872                     0.5                     0.5         1.4022556106679                    10.5        10.5000002980233   3.34417330008609E-005  -2.98869445268092E-007     0.00121963153413606       0.789202078726839                       0                       0       -3.88010016588965   -1.4964974785839E-005       0.397093595937705 
     0.0476190476190476                     0.5                     0.5        1.45238092133687                    10.5        10.5000002980233    3.4369051288635E-005  -2.73806670610476E-007     0.00123366662003939       0.778338381376184                       0                       0       -3.83521401657985  -1.55718215313071E-005       0.412129249970844 
      0.050125313283208                     0.5                     0.5        1.50250623200584                    10.5        10.5000002980233   3.52963806032728E-005  -2.48743895952996E-007     0.00124770172322811        0.76747469031515                       0                       0       -3.79032790585524  -1.61786695201979E-005       0.427164914268601 
     0.0526315789473684                     0.5                     0.5        1.55263154267481                    10.5        10.5000002980233   3.62236988910469E-005   -2.2368112129538E-007     0.00126173680913145       0.756610992964496                       0                       0       -3.74544175654544  -1.67855162656661E-005        0.44220056830174 
     0.0551378446115288                     0.5                     0.5        1.60275685334378                    10.5        10.5000002980233    3.7151017178821E-005  -1.98618346637765E-007     0.00127577189503478       0.745747295613841                       0                       0       -3.70055560723564  -1.73923630111343E-005       0.457236222334878 
     0.0576441102756892                     0.5                     0.5        1.65288216401275                    10.5        10.5000002980233   3.80783354665951E-005   -1.7355557198015E-007     0.00128980698093812       0.734883598263187                       0                       0       -3.65566945792584  -1.79992097566024E-005       0.472271876368016 
     0.0601503759398496                     0.5                     0.5        1.70300747468172                    10.5        10.5000002980233   3.90056537543692E-005  -1.48492797322534E-007     0.00130384206684145       0.724019900912532                       0                       0       -3.61078330861604  -1.86060565020706E-005       0.487307530401154 
       0.06265664160401                     0.5                     0.5        1.75313278535068                    10.5        10.5000002980233   3.99329720421433E-005  -1.23430022664919E-007     0.00131787715274479       0.713156203561878                       0                       0       -3.56589715930624  -1.92129032475388E-005       0.502343184434292 
     0.0651629072681704                     0.5                     0.5        1.80325809601965                    10.5        10.5000002980233   4.08602903299173E-005  -9.83672480073034E-008     0.00133191223864813       0.702292506211224                       0                       0       -3.52101100999644  -1.98197499930069E-005       0.517378838467431 
     0.0676691729323308                     0.5                     0.5        1.85338340668862                    10.5        10.5000002980233   4.17876086176914E-005  -7.33044733496879E-008     0.00134594732455146       0.691428808860569                       0                       0       -3.47612486068664  -2.04265967384751E-005       0.532414492500569 
     0.0701754385964912                     0.5                     0.5        1.90350871735759                    10.5        10.5000002980233   4.27149269054655E-005  -4.82416986920725E-008      0.0013599824104548       0.680565111509915                       0                       0       -3.43123871137685  -2.10334434839433E-005       0.547450146533707 
     0.0726817042606516                     0.5                     0.5        1.95363402802656                    10.5        10.5000002980233   4.36422451932396E-005  -2.31789240344571E-008     0.00137401749635813       0.669701414159261                       0                       0       -3.38635256206704  -2.16402902294115E-005       0.562485800566845 
      0.075187969924812                     0.5                     0.5        2.00375933911567                    10.5        10.5000002980233   4.43515218146445E-005   4.17120592916507E-012     0.00138539660942048       0.659138607751654                       0                       0       -3.33992140484503  -2.22243807528082E-005        0.57705030308054 
     0.0776942355889724                     0.5                     0.5        2.05388465538658                    10.5        10.5000002980233   4.23715717899016E-005   4.15626741575494E-012     0.00136401816263482       0.652286853250326                       0                       0       -3.27443482342252  -2.25278063932993E-005       0.585803837252453 
     0.0802005012531328                     0.5                     0.5        2.10400997165749                    10.5        10.5000002980233   4.03916217651588E-005   4.14132890234481E-012     0.00134263971584917       0.645435098748999                       0                       0       -3.20894824200002  -2.28312320337904E-005       0.594557371424366 
     0.0827067669172932                     0.5                     0.5         2.1541352879284                    10.5        10.5000002980233   3.84116717404159E-005   4.12639038893469E-012     0.00132126126906351       0.638583344247671                       0                       0       -3.14346166057752  -2.31346576742814E-005       0.603310905596279 
     0.0852130325814536                     0.5                     0.5        2.20426060419931                    10.5        10.5000002980233    3.6431721715673E-005   4.11145187552456E-012     0.00129988282227786       0.631731589746344                       0                       0       -3.07797507915501  -2.34380833147725E-005       0.612064439768192 
      0.087719298245614                     0.5                     0.5        2.25438592047022                    10.5        10.5000002980233   3.44517716909302E-005   4.09651336211443E-012     0.00127850437549221       0.624879835245016                       0                       0       -3.01248849773251  -2.37415089552635E-005       0.620817973940105 
     0.0902255639097744                     0.5                     0.5        2.30451123674113                    10.5        10.5000002980233   3.24718216661873E-005    4.0815748487043E-012     0.00125712592870655       0.618028080743689                       0                       0       -2.94700191631001  -2.40449345957546E-005       0.629571508112018 
     0.0927318295739348                     0.5                     0.5        2.35463655301204                    10.5        10.5000002980233   3.04918716414444E-005   4.06663633529418E-012      0.0012357474819209       0.611176326242361                       0                       0        -2.8815153348875  -2.43483602362457E-005       0.638325042283931 
     0.0952380952380952                     0.5                     0.5        2.40476186928295                    10.5        10.5000002980233   2.85119216167016E-005   4.05169782188405E-012     0.00121436903513525       0.604324571741033                       0                       0         -2.816028753465  -2.46517858767367E-005       0.647078576455843 
     0.0977443609022556                     0.5                     0.5        2.45488718555386                    10.5        10.5000002980233   2.65319715919587E-005   4.03675930847392E-012     0.00119299058834959       0.597472817239706                       0                       0       -2.75054217204249  -2.49552115172278E-005       0.655832110627756 
      0.100250626566416                     0.5                     0.5        2.50501250182477                    10.5        10.5000002980233   2.45520314019858E-005    4.0218209726996E-012     0.00117161215735916       0.590621064637678                       0                       0       -2.68505563671807  -2.52586374685939E-005        0.66458565313631 
      0.102756892230576                     0.5                     0.5        2.55513781809568                    10.5        10.5000002980233    2.2572081377243E-005   4.00688245928947E-012      0.0011502337105735        0.58376931013635                       0                       0       -2.61956905529556  -2.55620631090849E-005       0.673339187308223 
      0.105263157894737                     0.5                     0.5        2.60526313436659                    10.5        10.5000002980233   2.05921313525001E-005   3.99194394587935E-012     0.00112885526378785       0.576917555635023                       0                       0       -2.55408247387306   -2.5865488749576E-005       0.682092721480136 
      0.107769423558897                     0.5                     0.5         2.6553884506375                    10.5        10.5000002980233   1.86121813277572E-005   3.97700543246922E-012     0.00110747681700219       0.570065801133695                       0                       0       -2.48859589245055  -2.61689143900671E-005       0.690846255652049 
      0.110275689223058                     0.5                     0.5        2.70551376690841                    10.5        10.5000002980233   1.66322313030144E-005   3.96206691905909E-012     0.00108609837021654       0.563214046632368                       0                       0       -2.42310931102805  -2.64723400305581E-005       0.699599789823962 
      0.112781954887218                     0.5                     0.5        2.75563908317932                    10.5        10.5000002980233   1.46522812782715E-005   3.94712840564896E-012     0.00106471992343089        0.55636229213104                       0                       0       -2.35762272960555  -2.67757656710492E-005       0.708353323995875 
      0.115288220551378                     0.5                     0.5        2.80576439945022                    10.5        10.5000002980233   1.26723312535286E-005   3.93218989223884E-012     0.00104334147664523       0.549510537629712                       0                       0       -2.29213614818304  -2.70791913115402E-005       0.717106858167788 
      0.117794486215539                     0.5                     0.5        2.85588971572113                    10.5        10.5000002980233   1.06923812287858E-005   3.91725137882871E-012     0.00102196302985958       0.542658783128385                       0                       0       -2.22664956676054  -2.73826169520313E-005       0.725860392339701 
      0.120300751879699                     0.5                     0.5        2.90601503199204                    10.5        10.5000002980233    8.7124312040429E-006   3.90231286541858E-012     0.00100058458307393       0.535807028627057                       0                       0       -2.16116298533804  -2.76860425925224E-005       0.734613926511614 
       0.12280701754386                     0.5                     0.5        2.95614034826295                    10.5        10.5000002980233   6.73248117930003E-006   3.88737435200845E-012    0.000979206136288272        0.52895527412573                       0                       0       -2.09567640391553  -2.79894682330134E-005       0.743367460683526 
       0.12531328320802                     0.5                     0.5        3.00626566453386                    10.5        10.5000002980233   4.61468654228343E-006  -1.56255195161736E-009    0.000957689845018563       0.522591906332029                       0                       0       -2.03109622376986  -2.82484317122323E-005       0.751257500149027 
       0.12781954887218                     0.5                     0.5        3.05639098080477                    10.5        10.5000002980233   1.53197961935063E-006  -1.40939619897787E-008    0.000935208642360465       0.519647245491713                       0                       0       -1.97286085256204  -2.81961600625454E-005       0.753103076669636 
      0.130325814536341                     0.5                     0.5        3.10651629707568                    10.5        10.5000002980233  -1.55072730358217E-006    -2.662537202794E-008    0.000912727439702367       0.516702584651398                       0                       0       -1.91462548135422  -2.81438884128586E-005       0.754948653190245 
      0.132832080200501                     0.5                     0.5        3.15664161334659                    10.5        10.5000002980233  -4.63343422651497E-006  -3.91567820661013E-008    0.000890246237044269       0.513757923811083                       0                       0       -1.85639011014641  -2.80916167631718E-005       0.756794229710854 
      0.135338345864662                     0.5                     0.5         3.2067669296175                    10.5        10.5000002980233  -7.71614114944777E-006  -5.16881921042626E-008    0.000867765034386172       0.510813262970768                       0                       0       -1.79815473893859   -2.8039345113485E-005       0.758639806231464 
      0.137844611528822                     0.5                     0.5        3.25689224588841                    10.5        10.5000002980233  -1.07988480723806E-005  -6.42196021424239E-008    0.000845283831728074       0.507868602130452                       0                       0       -1.73991936773077  -2.79870734637981E-005       0.760485382752073 
      0.140350877192982                     0.5                     0.5        3.30701756215932                    10.5        10.5000002980233  -1.38815549953134E-005  -7.67510121805852E-008    0.000822802629069976       0.504923941290137                       0                       0       -1.68168399652295  -2.79348018141113E-005       0.762330959272682 
      0.142857142857143                     0.5                     0.5        3.35714287843023                    10.5        10.5000002980233  -1.69642619182462E-005  -8.92824222187466E-008    0.000800321426411878       0.501979280449822                       0                       0       -1.62344862531513  -2.78825301644245E-005       0.764176535793291 
      0.145363408521303                     0.5                     0.5        3.40726819470114                    10.5        10.5000002980233   -2.0046968841179E-005  -1.01813832256908E-007    0.000777840223753781       0.499034619609506                       0                       0       -1.56521325410731  -2.78302585147377E-005         0.7660221123139 
      0.147869674185464                     0.5                     0.5        3.45739351097205                    10.5        10.5000002980233  -2.31296757641118E-005  -1.14345242295069E-007    0.000755359021095683       0.496089958769191                       0                       0       -1.50697788289949  -2.77779868650509E-005        0.76786768883451 
      0.150375939849624                     0.5                     0.5        3.50751882724296                    10.5        10.5000002980233  -2.62123788127424E-005  -1.26876503321668E-007    0.000732877817543534       0.493145297731007                       0                       0       -1.44874253610324  -2.77257140274846E-005       0.769713264006526 
      0.152882205513784                     0.5                     0.5        3.55764414351387                    10.5        10.5000002980233  -2.92950857356752E-005   -1.3940791335983E-007    0.000710396614885437       0.490200636890692                       0                       0       -1.39050716489543  -2.76734423777978E-005       0.771558840527135 
      0.155388471177945                     0.5                     0.5        3.60776945978478                    10.5        10.5000002980233   -3.2377792658608E-005  -1.51939323397991E-007    0.000687915412227339       0.487255976050377                       0                       0       -1.33227179368761   -2.7621170728111E-005       0.773404417047745 
      0.157894736842105                     0.5                     0.5        3.65789477605569                    10.5        10.5000002980233  -3.54604995815408E-005  -1.64470733436152E-007    0.000665434209569241       0.484311315210062                       0                       0       -1.27403642247979  -2.75688990784241E-005       0.775249993568354 
      0.160401002506266                     0.5                     0.5         3.7080200923266                    10.5        10.5000002980233  -3.85432065044736E-005  -1.77002143474314E-007    0.000642953006911143       0.481366654369746                       0                       0       -1.21580105127197  -2.75166274287373E-005       0.777095570088963 
      0.162907268170426                     0.5                     0.5        3.75814540859751                    10.5        10.5000002980233  -4.16259134274064E-005  -1.89533553512475E-007    0.000620471804253046       0.478421993529431                       0                       0       -1.15756568006415  -2.74643557790505E-005       0.778941146609572 
      0.165413533834586                     0.5                     0.5        3.80827072486842                    10.5        10.5000002980233  -4.47086203503392E-005  -2.02064963550636E-007    0.000597990601594948       0.475477332689116                       0                       0       -1.09933030885633  -2.74120841293637E-005       0.780786723130181 
      0.167919799498747                     0.5                     0.5        3.85839604113933                    10.5        10.5000002980233   -4.7791327273272E-005  -2.14596373588798E-007     0.00057550939893685         0.4725326718488                       0                       0       -1.04109493764851  -2.73598124796769E-005       0.782632299650791 
      0.170426065162907                     0.5                     0.5        3.90852135741024                    10.5        10.5000002980233  -5.08740341962048E-005  -2.27127783626959E-007    0.000553028196278752       0.469588011008485                       0                       0       -0.98285956644069    -2.730754082999E-005         0.7844778761714 
      0.172932330827068                     0.5                     0.5        3.95864667368115                    10.5        10.5000002980233  -5.39567411191376E-005   -2.3965919366512E-007    0.000530546993620655        0.46664335016817                       0                       0       -0.92462419523287  -2.72552691803032E-005       0.786323452692009 
      0.175438596491228                     0.5                     0.5        4.00877198995206                    10.5        10.5000002980233  -5.68727802324048E-005  -2.49997607866197E-007    0.000509421063007326       0.464096340911949                       0                       0      -0.870623488894505  -2.72140298966405E-005       0.787911188470333 
      0.177944862155388                     0.5                     0.5        4.05889730622297                    10.5        10.5000002980233  -5.90031061428963E-005  -2.49997698270449E-007    0.000494684219411246        0.46342395939791                       0                       0      -0.836586038231832  -2.72247999101561E-005       0.788283399332156 
      0.180451127819549                     0.5                     0.5        4.10902262249388                    10.5        10.5000002980233  -6.11334320533877E-005  -2.49997788674702E-007    0.000479947375815166       0.462751577883871                       0                       0       -0.80254858756916  -2.72355699236718E-005       0.788655610193978 
      0.182957393483709                     0.5                     0.5        4.15914793876479                    10.5        10.5000002980233  -6.32637579638792E-005  -2.49997879078954E-007    0.000465210532219087       0.462079196369832                       0                       0      -0.768511136906488  -2.72463399371875E-005       0.789027821055801 
       0.18546365914787                     0.5                     0.5         4.2092732550357                    10.5        10.5000002980233  -6.53940838743706E-005  -2.49997969483207E-007    0.000450473688623007       0.461406814855793                       0                       0      -0.734473686243815  -2.72571099507032E-005       0.789400031917624 
       0.18796992481203                     0.5                     0.5        4.25939857130661                    10.5        10.5000002980233  -6.75244097848621E-005  -2.49998059887459E-007    0.000435736845026927       0.460734433341754                       0                       0      -0.700436235581142  -2.72678799642188E-005       0.789772242779447 
       0.19047619047619                     0.5                     0.5        4.30952388757752                    10.5        10.5000002980233  -6.96547356953536E-005  -2.49998150291712E-007    0.000421000001430848       0.460062051827715                       0                       0       -0.66639878491847  -2.72786499777345E-005       0.790144453641269 
      0.192982456140351                     0.5                     0.5        4.35964920384843                    10.5        10.5000002980233   -7.1785061605845E-005  -2.49998240695964E-007    0.000406263157834768       0.459389670313676                       0                       0      -0.632361334255797  -2.72894199912502E-005       0.790516664503092 
      0.195488721804511                     0.5                     0.5        4.40977452011933                    10.5        10.5000002980233  -7.39153875163365E-005  -2.49998331100217E-007    0.000391526314238689       0.458717288799637                       0                       0      -0.598323883593125  -2.73001900047658E-005       0.790888875364915 
      0.197994987468672                     0.5                     0.5        4.45989983639024                    10.5        10.5000002980233  -7.60457134268279E-005  -2.49998421504469E-007    0.000376789470642609       0.458044907285598                       0                       0      -0.564286432930453  -2.73109600182815E-005       0.791261086226738 
      0.200501253132832                     0.5                     0.5        4.51002515266115                    10.5        10.5000002980233  -7.81760396353425E-005  -2.49998511908713E-007    0.000362052619893967       0.457372525883017                       0                       0      -0.530248983090389  -2.73217285719353E-005       0.791633288650294 
      0.203007518796992                     0.5                     0.5        4.56015046893206                    10.5        10.5000002980233   -8.0306365545834E-005  -2.49998602312965E-007    0.000347315776297887       0.456700144368978                       0                       0      -0.496211532427716  -2.73324985854509E-005       0.792005499512117 